 VARIABLES = "X", "Y", "U", "V", "T"
 ZONE I= 21,J= 21 F=POINT
   0.000E+00  0.000E+00  0.000E+00  0.000E+00  5.000E-01
   5.000E-02  0.000E+00  0.000E+00  0.000E+00  1.558E-01
   1.000E-01  0.000E+00  0.000E+00  0.000E+00 -7.508E-02
   1.500E-01  0.000E+00  0.000E+00  0.000E+00 -1.911E-01
   2.000E-01  0.000E+00  0.000E+00  0.000E+00 -2.436E-01
   2.500E-01  0.000E+00  0.000E+00  0.000E+00 -2.690E-01
   3.000E-01  0.000E+00  0.000E+00  0.000E+00 -2.833E-01
   3.500E-01  0.000E+00  0.000E+00  0.000E+00 -2.933E-01
   4.000E-01  0.000E+00  0.000E+00  0.000E+00 -3.015E-01
   4.500E-01  0.000E+00  0.000E+00  0.000E+00 -3.091E-01
   5.000E-01  0.000E+00  0.000E+00  0.000E+00 -3.169E-01
   5.500E-01  0.000E+00  0.000E+00  0.000E+00 -3.251E-01
   6.000E-01  0.000E+00  0.000E+00  0.000E+00 -3.341E-01
   6.500E-01  0.000E+00  0.000E+00  0.000E+00 -3.442E-01
   7.000E-01  0.000E+00  0.000E+00  0.000E+00 -3.557E-01
   7.500E-01  0.000E+00  0.000E+00  0.000E+00 -3.693E-01
   8.000E-01  0.000E+00  0.000E+00  0.000E+00 -3.858E-01
   8.500E-01  0.000E+00  0.000E+00  0.000E+00 -4.065E-01
   9.000E-01  0.000E+00  0.000E+00  0.000E+00 -4.327E-01
   9.500E-01  0.000E+00  0.000E+00  0.000E+00 -4.646E-01
   1.000E+00  0.000E+00  0.000E+00  0.000E+00 -5.000E-01
   0.000E+00  5.000E-02  0.000E+00  0.000E+00  5.000E-01
   5.000E-02  5.000E-02 -1.036E+01  7.115E+00  1.524E-01
   1.000E-01  5.000E-02 -1.665E+01  1.809E+00 -8.044E-02
   1.500E-01  5.000E-02 -1.762E+01 -1.267E+00 -1.954E-01
   2.000E-01  5.000E-02 -1.665E+01 -1.684E+00 -2.457E-01
   2.500E-01  5.000E-02 -1.562E+01 -1.169E+00 -2.694E-01
   3.000E-01  5.000E-02 -1.508E+01 -5.534E-01 -2.827E-01
   3.500E-01  5.000E-02 -1.510E+01 -2.646E-02 -2.920E-01
   4.000E-01  5.000E-02 -1.567E+01  4.320E-01 -2.998E-01
   4.500E-01  5.000E-02 -1.677E+01  8.665E-01 -3.071E-01
   5.000E-01  5.000E-02 -1.836E+01  1.289E+00 -3.143E-01
   5.500E-01  5.000E-02 -2.034E+01  1.657E+00 -3.218E-01
   6.000E-01  5.000E-02 -2.251E+01  1.864E+00 -3.299E-01
   6.500E-01  5.000E-02 -2.451E+01  1.742E+00 -3.387E-01
   7.000E-01  5.000E-02 -2.579E+01  1.090E+00 -3.488E-01
   7.500E-01  5.000E-02 -2.567E+01 -2.388E-01 -3.610E-01
   8.000E-01  5.000E-02 -2.342E+01 -2.203E+00 -3.765E-01
   8.500E-01  5.000E-02 -1.856E+01 -4.353E+00 -3.973E-01
   9.000E-01  5.000E-02 -1.139E+01 -5.571E+00 -4.254E-01
   9.500E-01  5.000E-02 -3.872E+00 -4.326E+00 -4.607E-01
   1.000E+00  5.000E-02  0.000E+00  0.000E+00 -5.000E-01
   0.000E+00  1.000E-01  0.000E+00  0.000E+00  5.000E-01
   5.000E-02  1.000E-01 -9.664E+00  1.665E+01  1.518E-01
   1.000E-01  1.000E-01 -1.839E+01  7.261E+00 -8.351E-02
   1.500E-01  1.000E-01 -2.217E+01  4.304E-03 -1.982E-01
   2.000E-01  1.000E-01 -2.317E+01 -1.995E+00 -2.456E-01
   2.500E-01  1.000E-01 -2.334E+01 -1.578E+00 -2.665E-01
   3.000E-01  1.000E-01 -2.356E+01 -5.233E-01 -2.780E-01
   3.500E-01  1.000E-01 -2.415E+01  5.948E-01 -2.860E-01
   4.000E-01  1.000E-01 -2.523E+01  1.671E+00 -2.926E-01
   4.500E-01  1.000E-01 -2.681E+01  2.688E+00 -2.985E-01
   5.000E-01  1.000E-01 -2.880E+01  3.571E+00 -3.039E-01
   5.500E-01  1.000E-01 -3.103E+01  4.154E+00 -3.090E-01
   6.000E-01  1.000E-01 -3.318E+01  4.169E+00 -3.139E-01
   6.500E-01  1.000E-01 -3.480E+01  3.281E+00 -3.190E-01
   7.000E-01  1.000E-01 -3.529E+01  1.162E+00 -3.251E-01
   7.500E-01  1.000E-01 -3.399E+01 -2.370E+00 -3.335E-01
   8.000E-01  1.000E-01 -3.025E+01 -7.112E+00 -3.469E-01
   8.500E-01  1.000E-01 -2.368E+01 -1.204E+01 -3.689E-01
   9.000E-01  1.000E-01 -1.461E+01 -1.469E+01 -4.030E-01
   9.500E-01  1.000E-01 -5.118E+00 -1.139E+01 -4.489E-01
   1.000E+00  1.000E-01  0.000E+00  0.000E+00 -5.000E-01
   0.000E+00  1.500E-01  0.000E+00  0.000E+00  5.000E-01
   5.000E-02  1.500E-01 -7.478E+00  2.551E+01  1.611E-01
   1.000E-01  1.500E-01 -1.639E+01  1.431E+01 -7.332E-02
   1.500E-01  1.500E-01 -2.187E+01  3.507E+00 -1.895E-01
   2.000E-01  1.500E-01 -2.454E+01 -5.129E-01 -2.364E-01
   2.500E-01  1.500E-01 -2.588E+01 -7.783E-01 -2.557E-01
   3.000E-01  1.500E-01 -2.681E+01  2.604E-01 -2.657E-01
   3.500E-01  1.500E-01 -2.773E+01  1.647E+00 -2.723E-01
   4.000E-01  1.500E-01 -2.884E+01  3.085E+00 -2.772E-01
   4.500E-01  1.500E-01 -3.017E+01  4.434E+00 -2.809E-01
   5.000E-01  1.500E-01 -3.166E+01  5.513E+00 -2.833E-01
   5.500E-01  1.500E-01 -3.318E+01  6.039E+00 -2.845E-01
   6.000E-01  1.500E-01 -3.447E+01  5.633E+00 -2.846E-01
   6.500E-01  1.500E-01 -3.522E+01  3.850E+00 -2.843E-01
   7.000E-01  1.500E-01 -3.500E+01  2.821E-01 -2.847E-01
   7.500E-01  1.500E-01 -3.331E+01 -5.278E+00 -2.887E-01
   8.000E-01  1.500E-01 -2.959E+01 -1.252E+01 -3.003E-01
   8.500E-01  1.500E-01 -2.344E+01 -1.999E+01 -3.255E-01
   9.000E-01  1.500E-01 -1.490E+01 -2.413E+01 -3.694E-01
   9.500E-01  1.500E-01 -5.503E+00 -1.894E+01 -4.312E-01
   1.000E+00  1.500E-01  0.000E+00  0.000E+00 -5.000E-01
   0.000E+00  2.000E-01  0.000E+00  0.000E+00  5.000E-01
   5.000E-02  2.000E-01 -5.481E+00  3.304E+01  1.759E-01
   1.000E-01  2.000E-01 -1.364E+01  2.166E+01 -5.419E-02
   1.500E-01  2.000E-01 -1.974E+01  8.152E+00 -1.715E-01
   2.000E-01  2.000E-01 -2.322E+01  2.015E+00 -2.188E-01
   2.500E-01  2.000E-01 -2.511E+01  6.907E-01 -2.371E-01
   3.000E-01  2.000E-01 -2.625E+01  1.325E+00 -2.457E-01
   3.500E-01  2.000E-01 -2.707E+01  2.625E+00 -2.508E-01
   4.000E-01  2.000E-01 -2.779E+01  4.105E+00 -2.539E-01
   4.500E-01  2.000E-01 -2.847E+01  5.512E+00 -2.552E-01
   5.000E-01  2.000E-01 -2.912E+01  6.583E+00 -2.545E-01
   5.500E-01  2.000E-01 -2.969E+01  6.968E+00 -2.517E-01
   6.000E-01  2.000E-01 -3.010E+01  6.216E+00 -2.469E-01
   6.500E-01  2.000E-01 -3.020E+01  3.808E+00 -2.411E-01
   7.000E-01  2.000E-01 -2.978E+01 -7.569E-01 -2.362E-01
   7.500E-01  2.000E-01 -2.848E+01 -7.779E+00 -2.362E-01
   8.000E-01  2.000E-01 -2.579E+01 -1.698E+01 -2.471E-01
   8.500E-01  2.000E-01 -2.111E+01 -2.674E+01 -2.767E-01
   9.000E-01  2.000E-01 -1.409E+01 -3.262E+01 -3.317E-01
   9.500E-01  2.000E-01 -5.629E+00 -2.628E+01 -4.110E-01
   1.000E+00  2.000E-01  0.000E+00  0.000E+00 -5.000E-01
   0.000E+00  2.500E-01  0.000E+00  0.000E+00  5.000E-01
   5.000E-02  2.500E-01 -3.813E+00  3.915E+01  1.934E-01
   1.000E-01  2.500E-01 -1.085E+01  2.857E+01 -2.973E-02
   1.500E-01  2.500E-01 -1.684E+01  1.308E+01 -1.469E-01
   2.000E-01  2.500E-01 -2.050E+01  4.861E+00 -1.945E-01
   2.500E-01  2.500E-01 -2.242E+01  2.252E+00 -2.119E-01
   3.000E-01  2.500E-01 -2.338E+01  2.223E+00 -2.191E-01
   3.500E-01  2.500E-01 -2.383E+01  3.186E+00 -2.228E-01
   4.000E-01  2.500E-01 -2.398E+01  4.480E+00 -2.243E-01
   4.500E-01  2.500E-01 -2.392E+01  5.763E+00 -2.238E-01
   5.000E-01  2.500E-01 -2.373E+01  6.733E+00 -2.207E-01
   5.500E-01  2.500E-01 -2.344E+01  7.019E+00 -2.149E-01
   6.000E-01  2.500E-01 -2.312E+01  6.145E+00 -2.064E-01
   6.500E-01  2.500E-01 -2.280E+01  3.534E+00 -1.963E-01
   7.000E-01  2.500E-01 -2.246E+01 -1.438E+00 -1.873E-01
   7.500E-01  2.500E-01 -2.188E+01 -9.267E+00 -1.842E-01
   8.000E-01  2.500E-01 -2.057E+01 -1.989E+01 -1.947E-01
   8.500E-01  2.500E-01 -1.772E+01 -3.169E+01 -2.284E-01
   9.000E-01  2.500E-01 -1.260E+01 -3.961E+01 -2.940E-01
   9.500E-01  2.500E-01 -5.489E+00 -3.303E+01 -3.905E-01
   1.000E+00  2.500E-01  0.000E+00  0.000E+00 -5.000E-01
   0.000E+00  3.000E-01  0.000E+00  0.000E+00  5.000E-01
   5.000E-02  3.000E-01 -2.400E+00  4.389E+01  2.122E-01
   1.000E-01  3.000E-01 -8.169E+00  3.468E+01 -2.073E-03
   1.500E-01  3.000E-01 -1.367E+01  1.780E+01 -1.177E-01
   2.000E-01  3.000E-01 -1.717E+01  7.598E+00 -1.651E-01
   2.500E-01  3.000E-01 -1.888E+01  3.577E+00 -1.814E-01
   3.000E-01  3.000E-01 -1.950E+01  2.731E+00 -1.870E-01
   3.500E-01  3.000E-01 -1.949E+01  3.219E+00 -1.891E-01
   4.000E-01  3.000E-01 -1.908E+01  4.200E+00 -1.895E-01
   4.500E-01  3.000E-01 -1.840E+01  5.264E+00 -1.878E-01
   5.000E-01  3.000E-01 -1.753E+01  6.099E+00 -1.835E-01
   5.500E-01  3.000E-01 -1.657E+01  6.355E+00 -1.762E-01
   6.000E-01  3.000E-01 -1.568E+01  5.574E+00 -1.658E-01
   6.500E-01  3.000E-01 -1.504E+01  3.152E+00 -1.534E-01
   7.000E-01  3.000E-01 -1.478E+01 -1.670E+00 -1.417E-01
   7.500E-01  3.000E-01 -1.484E+01 -9.669E+00 -1.362E-01
   8.000E-01  3.000E-01 -1.480E+01 -2.115E+01 -1.459E-01
   8.500E-01  3.000E-01 -1.373E+01 -3.470E+01 -1.827E-01
   9.000E-01  3.000E-01 -1.058E+01 -4.485E+01 -2.574E-01
   9.500E-01  3.000E-01 -5.054E+00 -3.888E+01 -3.700E-01
   1.000E+00  3.000E-01  0.000E+00  0.000E+00 -5.000E-01
   0.000E+00  3.500E-01  0.000E+00  0.000E+00  5.000E-01
   5.000E-02  3.500E-01 -1.177E+00  4.732E+01  2.315E-01
   1.000E-01  3.500E-01 -5.652E+00  3.984E+01  2.754E-02
   1.500E-01  3.500E-01 -1.050E+01  2.209E+01 -8.539E-02
   2.000E-01  3.500E-01 -1.372E+01  1.007E+01 -1.319E-01
   2.500E-01  3.500E-01 -1.519E+01  4.578E+00 -1.467E-01
   3.000E-01  3.500E-01 -1.547E+01  2.827E+00 -1.503E-01
   3.500E-01  3.500E-01 -1.507E+01  2.773E+00 -1.507E-01
   4.000E-01  3.500E-01 -1.424E+01  3.396E+00 -1.498E-01
   4.500E-01  3.500E-01 -1.311E+01  4.208E+00 -1.474E-01
   5.000E-01  3.500E-01 -1.178E+01  4.902E+00 -1.429E-01
   5.500E-01  3.500E-01 -1.039E+01  5.172E+00 -1.356E-01
   6.000E-01  3.500E-01 -9.106E+00  4.611E+00 -1.251E-01
   6.500E-01  3.500E-01 -8.186E+00  2.628E+00 -1.122E-01
   7.000E-01  3.500E-01 -7.876E+00 -1.634E+00 -9.937E-02
   7.500E-01  3.500E-01 -8.287E+00 -9.248E+00 -9.229E-02
   8.000E-01  3.500E-01 -9.143E+00 -2.100E+01 -1.010E-01
   8.500E-01  3.500E-01 -9.567E+00 -3.590E+01 -1.396E-01
   9.000E-01  3.500E-01 -8.248E+00 -4.829E+01 -2.219E-01
   9.500E-01  3.500E-01 -4.382E+00 -4.361E+01 -3.497E-01
   1.000E+00  3.500E-01  0.000E+00  0.000E+00 -5.000E-01
   0.000E+00  4.000E-01  0.000E+00  0.000E+00  5.000E-01
   5.000E-02  4.000E-01 -9.780E-02  4.954E+01  2.511E-01
   1.000E-01  4.000E-01 -3.292E+00  4.400E+01  5.830E-02
   1.500E-01  4.000E-01 -7.413E+00  2.587E+01 -5.092E-02
   2.000E-01  4.000E-01 -1.037E+01  1.229E+01 -9.613E-02
   2.500E-01  4.000E-01 -1.168E+01  5.327E+00 -1.090E-01
   3.000E-01  4.000E-01 -1.176E+01  2.613E+00 -1.100E-01
   3.500E-01  4.000E-01 -1.110E+01  1.983E+00 -1.082E-01
   4.000E-01  4.000E-01 -9.993E+00  2.242E+00 -1.058E-01
   4.500E-01  4.000E-01 -8.601E+00  2.811E+00 -1.028E-01
   5.000E-01  4.000E-01 -7.032E+00  3.376E+00 -9.844E-02
   5.500E-01  4.000E-01 -5.408E+00  3.677E+00 -9.189E-02
   6.000E-01  4.000E-01 -3.906E+00  3.373E+00 -8.260E-02
   6.500E-01  4.000E-01 -2.778E+00  1.921E+00 -7.083E-02
   7.000E-01  4.000E-01 -2.320E+00 -1.570E+00 -5.856E-02
   7.500E-01  4.000E-01 -2.775E+00 -8.402E+00 -5.109E-02
   8.000E-01  4.000E-01 -4.092E+00 -1.987E+01 -5.901E-02
   8.500E-01  4.000E-01 -5.574E+00 -3.560E+01 -9.874E-02
   9.000E-01  4.000E-01 -5.822E+00 -5.004E+01 -1.877E-01
   9.500E-01  4.000E-01 -3.569E+00 -4.713E+01 -3.297E-01
   1.000E+00  4.000E-01  0.000E+00  0.000E+00 -5.000E-01
   0.000E+00  4.500E-01  0.000E+00  0.000E+00  5.000E-01
   5.000E-02  4.500E-01  8.810E-01  5.061E+01  2.707E-01
   1.000E-01  4.500E-01 -1.042E+00  4.716E+01  8.978E-02
   1.500E-01  4.500E-01 -4.399E+00  2.917E+01 -1.505E-02
   2.000E-01  4.500E-01 -7.130E+00  1.434E+01 -5.865E-02
   2.500E-01  4.500E-01 -8.419E+00  5.970E+00 -6.942E-02
   3.000E-01  4.500E-01 -8.459E+00  2.244E+00 -6.770E-02
   3.500E-01  4.500E-01 -7.686E+00  1.001E+00 -6.306E-02
   4.000E-01  4.500E-01 -6.434E+00  8.962E-01 -5.860E-02
   4.500E-01  4.500E-01 -4.908E+00  1.247E+00 -5.459E-02
   5.000E-01  4.500E-01 -3.235E+00  1.708E+00 -5.032E-02
   5.500E-01  4.500E-01 -1.532E+00  2.046E+00 -4.484E-02
   6.000E-01  4.500E-01  5.374E-02  1.982E+00 -3.739E-02
   6.500E-01  4.500E-01  1.306E+00  1.042E+00 -2.781E-02
   7.000E-01  4.500E-01  1.933E+00 -1.637E+00 -1.743E-02
   7.500E-01  4.500E-01  1.615E+00 -7.476E+00 -1.091E-02
   8.000E-01  4.500E-01  1.878E-01 -1.820E+01 -1.890E-02
   8.500E-01  4.500E-01 -1.941E+00 -3.417E+01 -5.965E-02
   9.000E-01  4.500E-01 -3.451E+00 -5.030E+01 -1.543E-01
   9.500E-01  4.500E-01 -2.696E+00 -4.944E+01 -3.099E-01
   1.000E+00  4.500E-01  0.000E+00  0.000E+00 -5.000E-01
   0.000E+00  5.000E-01  0.000E+00  0.000E+00  5.000E-01
   5.000E-02  5.000E-01  1.802E+00  5.058E+01  2.903E-01
   1.000E-01  5.000E-01  1.177E+00  4.928E+01  1.218E-01
   1.500E-01  5.000E-01 -1.337E+00  3.196E+01  2.182E-02
   2.000E-01  5.000E-01 -3.830E+00  1.631E+01 -2.022E-02
   2.500E-01  5.000E-01 -5.194E+00  6.656E+00 -2.924E-02
   3.000E-01  5.000E-01 -5.336E+00  1.879E+00 -2.480E-02
   3.500E-01  5.000E-01 -4.586E+00 -4.172E-02 -1.716E-02
   4.000E-01  5.000E-01 -3.293E+00 -5.354E-01 -1.019E-02
   4.500E-01  5.000E-01 -1.708E+00 -3.877E-01 -4.640E-03
   5.000E-01  5.000E-01  6.605E-08  8.709E-08  4.438E-10
   5.500E-01  5.000E-01  1.708E+00  3.877E-01  4.640E-03
   6.000E-01  5.000E-01  3.293E+00  5.354E-01  1.019E-02
   6.500E-01  5.000E-01  4.586E+00  4.172E-02  1.716E-02
   7.000E-01  5.000E-01  5.336E+00 -1.879E+00  2.480E-02
   7.500E-01  5.000E-01  5.194E+00 -6.656E+00  2.924E-02
   8.000E-01  5.000E-01  3.830E+00 -1.631E+01  2.022E-02
   8.500E-01  5.000E-01  1.337E+00 -3.196E+01 -2.182E-02
   9.000E-01  5.000E-01 -1.177E+00 -4.928E+01 -1.218E-01
   9.500E-01  5.000E-01 -1.802E+00 -5.058E+01 -2.903E-01
   1.000E+00  5.000E-01  0.000E+00  0.000E+00 -5.000E-01
   0.000E+00  5.500E-01  0.000E+00  0.000E+00  5.000E-01
   5.000E-02  5.500E-01  2.696E+00  4.944E+01  3.099E-01
   1.000E-01  5.500E-01  3.451E+00  5.030E+01  1.543E-01
   1.500E-01  5.500E-01  1.941E+00  3.417E+01  5.965E-02
   2.000E-01  5.500E-01 -1.878E-01  1.820E+01  1.890E-02
   2.500E-01  5.500E-01 -1.615E+00  7.476E+00  1.091E-02
   3.000E-01  5.500E-01 -1.933E+00  1.637E+00  1.743E-02
   3.500E-01  5.500E-01 -1.306E+00 -1.042E+00  2.781E-02
   4.000E-01  5.500E-01 -5.374E-02 -1.982E+00  3.739E-02
   4.500E-01  5.500E-01  1.532E+00 -2.046E+00  4.484E-02
   5.000E-01  5.500E-01  3.235E+00 -1.708E+00  5.032E-02
   5.500E-01  5.500E-01  4.908E+00 -1.247E+00  5.459E-02
   6.000E-01  5.500E-01  6.434E+00 -8.962E-01  5.860E-02
   6.500E-01  5.500E-01  7.686E+00 -1.001E+00  6.306E-02
   7.000E-01  5.500E-01  8.459E+00 -2.244E+00  6.770E-02
   7.500E-01  5.500E-01  8.419E+00 -5.970E+00  6.942E-02
   8.000E-01  5.500E-01  7.130E+00 -1.434E+01  5.865E-02
   8.500E-01  5.500E-01  4.399E+00 -2.917E+01  1.505E-02
   9.000E-01  5.500E-01  1.042E+00 -4.716E+01 -8.978E-02
   9.500E-01  5.500E-01 -8.810E-01 -5.061E+01 -2.707E-01
   1.000E+00  5.500E-01  0.000E+00  0.000E+00 -5.000E-01
   0.000E+00  6.000E-01  0.000E+00  0.000E+00  5.000E-01
   5.000E-02  6.000E-01  3.569E+00  4.713E+01  3.297E-01
   1.000E-01  6.000E-01  5.822E+00  5.004E+01  1.877E-01
   1.500E-01  6.000E-01  5.574E+00  3.560E+01  9.874E-02
   2.000E-01  6.000E-01  4.092E+00  1.987E+01  5.901E-02
   2.500E-01  6.000E-01  2.775E+00  8.402E+00  5.109E-02
   3.000E-01  6.000E-01  2.320E+00  1.570E+00  5.856E-02
   3.500E-01  6.000E-01  2.778E+00 -1.921E+00  7.083E-02
   4.000E-01  6.000E-01  3.906E+00 -3.373E+00  8.260E-02
   4.500E-01  6.000E-01  5.408E+00 -3.677E+00  9.189E-02
   5.000E-01  6.000E-01  7.032E+00 -3.376E+00  9.844E-02
   5.500E-01  6.000E-01  8.601E+00 -2.811E+00  1.028E-01
   6.000E-01  6.000E-01  9.993E+00 -2.242E+00  1.058E-01
   6.500E-01  6.000E-01  1.110E+01 -1.983E+00  1.082E-01
   7.000E-01  6.000E-01  1.176E+01 -2.613E+00  1.100E-01
   7.500E-01  6.000E-01  1.168E+01 -5.327E+00  1.090E-01
   8.000E-01  6.000E-01  1.037E+01 -1.229E+01  9.613E-02
   8.500E-01  6.000E-01  7.413E+00 -2.587E+01  5.092E-02
   9.000E-01  6.000E-01  3.292E+00 -4.400E+01 -5.830E-02
   9.500E-01  6.000E-01  9.780E-02 -4.954E+01 -2.511E-01
   1.000E+00  6.000E-01  0.000E+00  0.000E+00 -5.000E-01
   0.000E+00  6.500E-01  0.000E+00  0.000E+00  5.000E-01
   5.000E-02  6.500E-01  4.382E+00  4.361E+01  3.497E-01
   1.000E-01  6.500E-01  8.248E+00  4.829E+01  2.219E-01
   1.500E-01  6.500E-01  9.567E+00  3.590E+01  1.396E-01
   2.000E-01  6.500E-01  9.143E+00  2.100E+01  1.010E-01
   2.500E-01  6.500E-01  8.287E+00  9.248E+00  9.229E-02
   3.000E-01  6.500E-01  7.876E+00  1.634E+00  9.937E-02
   3.500E-01  6.500E-01  8.186E+00 -2.628E+00  1.122E-01
   4.000E-01  6.500E-01  9.106E+00 -4.611E+00  1.251E-01
   4.500E-01  6.500E-01  1.039E+01 -5.172E+00  1.356E-01
   5.000E-01  6.500E-01  1.178E+01 -4.902E+00  1.429E-01
   5.500E-01  6.500E-01  1.311E+01 -4.208E+00  1.474E-01
   6.000E-01  6.500E-01  1.424E+01 -3.396E+00  1.498E-01
   6.500E-01  6.500E-01  1.507E+01 -2.773E+00  1.507E-01
   7.000E-01  6.500E-01  1.547E+01 -2.827E+00  1.503E-01
   7.500E-01  6.500E-01  1.519E+01 -4.578E+00  1.467E-01
   8.000E-01  6.500E-01  1.372E+01 -1.007E+01  1.319E-01
   8.500E-01  6.500E-01  1.050E+01 -2.209E+01  8.539E-02
   9.000E-01  6.500E-01  5.652E+00 -3.984E+01 -2.754E-02
   9.500E-01  6.500E-01  1.177E+00 -4.732E+01 -2.315E-01
   1.000E+00  6.500E-01  0.000E+00  0.000E+00 -5.000E-01
   0.000E+00  7.000E-01  0.000E+00  0.000E+00  5.000E-01
   5.000E-02  7.000E-01  5.054E+00  3.888E+01  3.700E-01
   1.000E-01  7.000E-01  1.058E+01  4.485E+01  2.574E-01
   1.500E-01  7.000E-01  1.373E+01  3.470E+01  1.827E-01
   2.000E-01  7.000E-01  1.480E+01  2.115E+01  1.459E-01
   2.500E-01  7.000E-01  1.484E+01  9.669E+00  1.362E-01
   3.000E-01  7.000E-01  1.478E+01  1.670E+00  1.417E-01
   3.500E-01  7.000E-01  1.504E+01 -3.152E+00  1.534E-01
   4.000E-01  7.000E-01  1.568E+01 -5.574E+00  1.658E-01
   4.500E-01  7.000E-01  1.657E+01 -6.355E+00  1.762E-01
   5.000E-01  7.000E-01  1.753E+01 -6.099E+00  1.835E-01
   5.500E-01  7.000E-01  1.840E+01 -5.264E+00  1.878E-01
   6.000E-01  7.000E-01  1.908E+01 -4.200E+00  1.895E-01
   6.500E-01  7.000E-01  1.949E+01 -3.219E+00  1.891E-01
   7.000E-01  7.000E-01  1.950E+01 -2.731E+00  1.870E-01
   7.500E-01  7.000E-01  1.888E+01 -3.577E+00  1.814E-01
   8.000E-01  7.000E-01  1.717E+01 -7.598E+00  1.651E-01
   8.500E-01  7.000E-01  1.367E+01 -1.780E+01  1.177E-01
   9.000E-01  7.000E-01  8.169E+00 -3.468E+01  2.073E-03
   9.500E-01  7.000E-01  2.400E+00 -4.389E+01 -2.122E-01
   1.000E+00  7.000E-01  0.000E+00  0.000E+00 -5.000E-01
   0.000E+00  7.500E-01  0.000E+00  0.000E+00  5.000E-01
   5.000E-02  7.500E-01  5.489E+00  3.303E+01  3.905E-01
   1.000E-01  7.500E-01  1.260E+01  3.961E+01  2.940E-01
   1.500E-01  7.500E-01  1.772E+01  3.169E+01  2.284E-01
   2.000E-01  7.500E-01  2.057E+01  1.989E+01  1.947E-01
   2.500E-01  7.500E-01  2.188E+01  9.267E+00  1.842E-01
   3.000E-01  7.500E-01  2.246E+01  1.438E+00  1.873E-01
   3.500E-01  7.500E-01  2.280E+01 -3.534E+00  1.963E-01
   4.000E-01  7.500E-01  2.312E+01 -6.145E+00  2.064E-01
   4.500E-01  7.500E-01  2.344E+01 -7.019E+00  2.149E-01
   5.000E-01  7.500E-01  2.373E+01 -6.733E+00  2.207E-01
   5.500E-01  7.500E-01  2.392E+01 -5.763E+00  2.238E-01
   6.000E-01  7.500E-01  2.398E+01 -4.480E+00  2.243E-01
   6.500E-01  7.500E-01  2.383E+01 -3.186E+00  2.228E-01
   7.000E-01  7.500E-01  2.338E+01 -2.223E+00  2.191E-01
   7.500E-01  7.500E-01  2.242E+01 -2.252E+00  2.119E-01
   8.000E-01  7.500E-01  2.050E+01 -4.861E+00  1.945E-01
   8.500E-01  7.500E-01  1.684E+01 -1.308E+01  1.469E-01
   9.000E-01  7.500E-01  1.085E+01 -2.857E+01  2.973E-02
   9.500E-01  7.500E-01  3.813E+00 -3.915E+01 -1.934E-01
   1.000E+00  7.500E-01  0.000E+00  0.000E+00 -5.000E-01
   0.000E+00  8.000E-01  0.000E+00  0.000E+00  5.000E-01
   5.000E-02  8.000E-01  5.629E+00  2.628E+01  4.110E-01
   1.000E-01  8.000E-01  1.409E+01  3.262E+01  3.317E-01
   1.500E-01  8.000E-01  2.111E+01  2.674E+01  2.767E-01
   2.000E-01  8.000E-01  2.579E+01  1.698E+01  2.471E-01
   2.500E-01  8.000E-01  2.848E+01  7.779E+00  2.362E-01
   3.000E-01  8.000E-01  2.978E+01  7.569E-01  2.362E-01
   3.500E-01  8.000E-01  3.020E+01 -3.808E+00  2.411E-01
   4.000E-01  8.000E-01  3.010E+01 -6.216E+00  2.469E-01
   4.500E-01  8.000E-01  2.969E+01 -6.968E+00  2.517E-01
   5.000E-01  8.000E-01  2.912E+01 -6.583E+00  2.545E-01
   5.500E-01  8.000E-01  2.847E+01 -5.512E+00  2.552E-01
   6.000E-01  8.000E-01  2.779E+01 -4.105E+00  2.539E-01
   6.500E-01  8.000E-01  2.707E+01 -2.625E+00  2.508E-01
   7.000E-01  8.000E-01  2.625E+01 -1.325E+00  2.457E-01
   7.500E-01  8.000E-01  2.511E+01 -6.907E-01  2.371E-01
   8.000E-01  8.000E-01  2.322E+01 -2.015E+00  2.188E-01
   8.500E-01  8.000E-01  1.974E+01 -8.152E+00  1.715E-01
   9.000E-01  8.000E-01  1.364E+01 -2.166E+01  5.419E-02
   9.500E-01  8.000E-01  5.481E+00 -3.304E+01 -1.759E-01
   1.000E+00  8.000E-01  0.000E+00  0.000E+00 -5.000E-01
   0.000E+00  8.500E-01  0.000E+00  0.000E+00  5.000E-01
   5.000E-02  8.500E-01  5.503E+00  1.894E+01  4.312E-01
   1.000E-01  8.500E-01  1.490E+01  2.413E+01  3.694E-01
   1.500E-01  8.500E-01  2.344E+01  1.999E+01  3.255E-01
   2.000E-01  8.500E-01  2.959E+01  1.252E+01  3.003E-01
   2.500E-01  8.500E-01  3.331E+01  5.278E+00  2.887E-01
   3.000E-01  8.500E-01  3.500E+01 -2.821E-01  2.847E-01
   3.500E-01  8.500E-01  3.522E+01 -3.850E+00  2.843E-01
   4.000E-01  8.500E-01  3.447E+01 -5.633E+00  2.846E-01
   4.500E-01  8.500E-01  3.318E+01 -6.039E+00  2.845E-01
   5.000E-01  8.500E-01  3.166E+01 -5.513E+00  2.833E-01
   5.500E-01  8.500E-01  3.017E+01 -4.434E+00  2.809E-01
   6.000E-01  8.500E-01  2.884E+01 -3.085E+00  2.772E-01
   6.500E-01  8.500E-01  2.773E+01 -1.647E+00  2.723E-01
   7.000E-01  8.500E-01  2.681E+01 -2.604E-01  2.657E-01
   7.500E-01  8.500E-01  2.588E+01  7.783E-01  2.557E-01
   8.000E-01  8.500E-01  2.454E+01  5.129E-01  2.364E-01
   8.500E-01  8.500E-01  2.187E+01 -3.507E+00  1.895E-01
   9.000E-01  8.500E-01  1.639E+01 -1.431E+01  7.332E-02
   9.500E-01  8.500E-01  7.478E+00 -2.551E+01 -1.611E-01
   1.000E+00  8.500E-01  0.000E+00  0.000E+00 -5.000E-01
   0.000E+00  9.000E-01  0.000E+00  0.000E+00  5.000E-01
   5.000E-02  9.000E-01  5.118E+00  1.139E+01  4.489E-01
   1.000E-01  9.000E-01  1.461E+01  1.469E+01  4.030E-01
   1.500E-01  9.000E-01  2.368E+01  1.204E+01  3.689E-01
   2.000E-01  9.000E-01  3.025E+01  7.112E+00  3.469E-01
   2.500E-01  9.000E-01  3.399E+01  2.370E+00  3.335E-01
   3.000E-01  9.000E-01  3.529E+01 -1.162E+00  3.251E-01
   3.500E-01  9.000E-01  3.480E+01 -3.281E+00  3.190E-01
   4.000E-01  9.000E-01  3.318E+01 -4.169E+00  3.139E-01
   4.500E-01  9.000E-01  3.103E+01 -4.154E+00  3.090E-01
   5.000E-01  9.000E-01  2.880E+01 -3.571E+00  3.039E-01
   5.500E-01  9.000E-01  2.681E+01 -2.688E+00  2.985E-01
   6.000E-01  9.000E-01  2.523E+01 -1.671E+00  2.926E-01
   6.500E-01  9.000E-01  2.415E+01 -5.948E-01  2.860E-01
   7.000E-01  9.000E-01  2.356E+01  5.233E-01  2.780E-01
   7.500E-01  9.000E-01  2.334E+01  1.578E+00  2.665E-01
   8.000E-01  9.000E-01  2.317E+01  1.995E+00  2.456E-01
   8.500E-01  9.000E-01  2.217E+01 -4.304E-03  1.982E-01
   9.000E-01  9.000E-01  1.839E+01 -7.261E+00  8.351E-02
   9.500E-01  9.000E-01  9.664E+00 -1.665E+01 -1.518E-01
   1.000E+00  9.000E-01  0.000E+00  0.000E+00 -5.000E-01
   0.000E+00  9.500E-01  0.000E+00  0.000E+00  5.000E-01
   5.000E-02  9.500E-01  3.872E+00  4.326E+00  4.607E-01
   1.000E-01  9.500E-01  1.139E+01  5.571E+00  4.254E-01
   1.500E-01  9.500E-01  1.856E+01  4.353E+00  3.973E-01
   2.000E-01  9.500E-01  2.342E+01  2.203E+00  3.765E-01
   2.500E-01  9.500E-01  2.567E+01  2.388E-01  3.610E-01
   3.000E-01  9.500E-01  2.579E+01 -1.090E+00  3.488E-01
   3.500E-01  9.500E-01  2.451E+01 -1.742E+00  3.387E-01
   4.000E-01  9.500E-01  2.251E+01 -1.864E+00  3.299E-01
   4.500E-01  9.500E-01  2.034E+01 -1.657E+00  3.218E-01
   5.000E-01  9.500E-01  1.836E+01 -1.289E+00  3.143E-01
   5.500E-01  9.500E-01  1.677E+01 -8.665E-01  3.071E-01
   6.000E-01  9.500E-01  1.567E+01 -4.320E-01  2.998E-01
   6.500E-01  9.500E-01  1.510E+01  2.646E-02  2.920E-01
   7.000E-01  9.500E-01  1.508E+01  5.534E-01  2.827E-01
   7.500E-01  9.500E-01  1.562E+01  1.169E+00  2.694E-01
   8.000E-01  9.500E-01  1.665E+01  1.684E+00  2.457E-01
   8.500E-01  9.500E-01  1.762E+01  1.267E+00  1.954E-01
   9.000E-01  9.500E-01  1.665E+01 -1.809E+00  8.044E-02
   9.500E-01  9.500E-01  1.036E+01 -7.115E+00 -1.524E-01
   1.000E+00  9.500E-01  0.000E+00  0.000E+00 -5.000E-01
   0.000E+00  1.000E+00  0.000E+00  0.000E+00  5.000E-01
   5.000E-02  1.000E+00  0.000E+00  0.000E+00  4.646E-01
   1.000E-01  1.000E+00  0.000E+00  0.000E+00  4.327E-01
   1.500E-01  1.000E+00  0.000E+00  0.000E+00  4.065E-01
   2.000E-01  1.000E+00  0.000E+00  0.000E+00  3.858E-01
   2.500E-01  1.000E+00  0.000E+00  0.000E+00  3.693E-01
   3.000E-01  1.000E+00  0.000E+00  0.000E+00  3.557E-01
   3.500E-01  1.000E+00  0.000E+00  0.000E+00  3.442E-01
   4.000E-01  1.000E+00  0.000E+00  0.000E+00  3.341E-01
   4.500E-01  1.000E+00  0.000E+00  0.000E+00  3.251E-01
   5.000E-01  1.000E+00  0.000E+00  0.000E+00  3.169E-01
   5.500E-01  1.000E+00  0.000E+00  0.000E+00  3.091E-01
   6.000E-01  1.000E+00  0.000E+00  0.000E+00  3.015E-01
   6.500E-01  1.000E+00  0.000E+00  0.000E+00  2.933E-01
   7.000E-01  1.000E+00  0.000E+00  0.000E+00  2.833E-01
   7.500E-01  1.000E+00  0.000E+00  0.000E+00  2.690E-01
   8.000E-01  1.000E+00  0.000E+00  0.000E+00  2.436E-01
   8.500E-01  1.000E+00  0.000E+00  0.000E+00  1.911E-01
   9.000E-01  1.000E+00  0.000E+00  0.000E+00  7.508E-02
   9.500E-01  1.000E+00  0.000E+00  0.000E+00 -1.558E-01
   1.000E+00  1.000E+00  0.000E+00  0.000E+00 -5.000E-01
