 VARIABLES = "X", "Y", "Z", "U", "V", "W", "T"
 ZONE I= 17,J= 17,K= 17, F=POINT
   0.000E+00  0.000E+00  0.000E+00  0.000E+00  0.000E+00  0.000E+00  5.000E-01
   6.250E-02  0.000E+00  0.000E+00  0.000E+00  0.000E+00  0.000E+00  2.612E-01
   1.250E-01  0.000E+00  0.000E+00  0.000E+00  0.000E+00  0.000E+00  6.681E-02
   1.875E-01  0.000E+00  0.000E+00  0.000E+00  0.000E+00  0.000E+00 -7.025E-02
   2.500E-01  0.000E+00  0.000E+00  0.000E+00  0.000E+00  0.000E+00 -1.603E-01
   3.125E-01  0.000E+00  0.000E+00  0.000E+00  0.000E+00  0.000E+00 -2.187E-01
   3.750E-01  0.000E+00  0.000E+00  0.000E+00  0.000E+00  0.000E+00 -2.581E-01
   4.375E-01  0.000E+00  0.000E+00  0.000E+00  0.000E+00  0.000E+00 -2.866E-01
   5.000E-01  0.000E+00  0.000E+00  0.000E+00  0.000E+00  0.000E+00 -3.094E-01
   5.625E-01  0.000E+00  0.000E+00  0.000E+00  0.000E+00  0.000E+00 -3.298E-01
   6.250E-01  0.000E+00  0.000E+00  0.000E+00  0.000E+00  0.000E+00 -3.495E-01
   6.875E-01  0.000E+00  0.000E+00  0.000E+00  0.000E+00  0.000E+00 -3.697E-01
   7.500E-01  0.000E+00  0.000E+00  0.000E+00  0.000E+00  0.000E+00 -3.913E-01
   8.125E-01  0.000E+00  0.000E+00  0.000E+00  0.000E+00  0.000E+00 -4.149E-01
   8.750E-01  0.000E+00  0.000E+00  0.000E+00  0.000E+00  0.000E+00 -4.409E-01
   9.375E-01  0.000E+00  0.000E+00  0.000E+00  0.000E+00  0.000E+00 -4.696E-01
   1.000E+00  0.000E+00  0.000E+00  0.000E+00  0.000E+00  0.000E+00 -5.000E-01
   0.000E+00  6.250E-02  0.000E+00  0.000E+00  0.000E+00  0.000E+00  5.000E-01
   6.250E-02  6.250E-02  0.000E+00  0.000E+00  0.000E+00  0.000E+00  2.623E-01
   1.250E-01  6.250E-02  0.000E+00  0.000E+00  0.000E+00  0.000E+00  6.810E-02
   1.875E-01  6.250E-02  0.000E+00  0.000E+00  0.000E+00  0.000E+00 -6.893E-02
   2.500E-01  6.250E-02  0.000E+00  0.000E+00  0.000E+00  0.000E+00 -1.585E-01
   3.125E-01  6.250E-02  0.000E+00  0.000E+00  0.000E+00  0.000E+00 -2.163E-01
   3.750E-01  6.250E-02  0.000E+00  0.000E+00  0.000E+00  0.000E+00 -2.549E-01
   4.375E-01  6.250E-02  0.000E+00  0.000E+00  0.000E+00  0.000E+00 -2.827E-01
   5.000E-01  6.250E-02  0.000E+00  0.000E+00  0.000E+00  0.000E+00 -3.050E-01
   5.625E-01  6.250E-02  0.000E+00  0.000E+00  0.000E+00  0.000E+00 -3.249E-01
   6.250E-01  6.250E-02  0.000E+00  0.000E+00  0.000E+00  0.000E+00 -3.442E-01
   6.875E-01  6.250E-02  0.000E+00  0.000E+00  0.000E+00  0.000E+00 -3.642E-01
   7.500E-01  6.250E-02  0.000E+00  0.000E+00  0.000E+00  0.000E+00 -3.859E-01
   8.125E-01  6.250E-02  0.000E+00  0.000E+00  0.000E+00  0.000E+00 -4.100E-01
   8.750E-01  6.250E-02  0.000E+00  0.000E+00  0.000E+00  0.000E+00 -4.372E-01
   9.375E-01  6.250E-02  0.000E+00  0.000E+00  0.000E+00  0.000E+00 -4.675E-01
   1.000E+00  6.250E-02  0.000E+00  0.000E+00  0.000E+00  0.000E+00 -5.000E-01
   0.000E+00  1.250E-01  0.000E+00  0.000E+00  0.000E+00  0.000E+00  5.000E-01
   6.250E-02  1.250E-01  0.000E+00  0.000E+00  0.000E+00  0.000E+00  2.675E-01
   1.250E-01  1.250E-01  0.000E+00  0.000E+00  0.000E+00  0.000E+00  7.564E-02
   1.875E-01  1.250E-01  0.000E+00  0.000E+00  0.000E+00  0.000E+00 -6.055E-02
   2.500E-01  1.250E-01  0.000E+00  0.000E+00  0.000E+00  0.000E+00 -1.492E-01
   3.125E-01  1.250E-01  0.000E+00  0.000E+00  0.000E+00  0.000E+00 -2.055E-01
   3.750E-01  1.250E-01  0.000E+00  0.000E+00  0.000E+00  0.000E+00 -2.424E-01
   4.375E-01  1.250E-01  0.000E+00  0.000E+00  0.000E+00  0.000E+00 -2.686E-01
   5.000E-01  1.250E-01  0.000E+00  0.000E+00  0.000E+00  0.000E+00 -2.894E-01
   5.625E-01  1.250E-01  0.000E+00  0.000E+00  0.000E+00  0.000E+00 -3.079E-01
   6.250E-01  1.250E-01  0.000E+00  0.000E+00  0.000E+00  0.000E+00 -3.263E-01
   6.875E-01  1.250E-01  0.000E+00  0.000E+00  0.000E+00  0.000E+00 -3.459E-01
   7.500E-01  1.250E-01  0.000E+00  0.000E+00  0.000E+00  0.000E+00 -3.681E-01
   8.125E-01  1.250E-01  0.000E+00  0.000E+00  0.000E+00  0.000E+00 -3.942E-01
   8.750E-01  1.250E-01  0.000E+00  0.000E+00  0.000E+00  0.000E+00 -4.251E-01
   9.375E-01  1.250E-01  0.000E+00  0.000E+00  0.000E+00  0.000E+00 -4.610E-01
   1.000E+00  1.250E-01  0.000E+00  0.000E+00  0.000E+00  0.000E+00 -5.000E-01
   0.000E+00  1.875E-01  0.000E+00  0.000E+00  0.000E+00  0.000E+00  5.000E-01
   6.250E-02  1.875E-01  0.000E+00  0.000E+00  0.000E+00  0.000E+00  2.778E-01
   1.250E-01  1.875E-01  0.000E+00  0.000E+00  0.000E+00  0.000E+00  9.185E-02
   1.875E-01  1.875E-01  0.000E+00  0.000E+00  0.000E+00  0.000E+00 -4.161E-02
   2.500E-01  1.875E-01  0.000E+00  0.000E+00  0.000E+00  0.000E+00 -1.285E-01
   3.125E-01  1.875E-01  0.000E+00  0.000E+00  0.000E+00  0.000E+00 -1.830E-01
   3.750E-01  1.875E-01  0.000E+00  0.000E+00  0.000E+00  0.000E+00 -2.179E-01
   4.375E-01  1.875E-01  0.000E+00  0.000E+00  0.000E+00  0.000E+00 -2.419E-01
   5.000E-01  1.875E-01  0.000E+00  0.000E+00  0.000E+00  0.000E+00 -2.605E-01
   5.625E-01  1.875E-01  0.000E+00  0.000E+00  0.000E+00  0.000E+00 -2.771E-01
   6.250E-01  1.875E-01  0.000E+00  0.000E+00  0.000E+00  0.000E+00 -2.941E-01
   6.875E-01  1.875E-01  0.000E+00  0.000E+00  0.000E+00  0.000E+00 -3.133E-01
   7.500E-01  1.875E-01  0.000E+00  0.000E+00  0.000E+00  0.000E+00 -3.369E-01
   8.125E-01  1.875E-01  0.000E+00  0.000E+00  0.000E+00  0.000E+00 -3.668E-01
   8.750E-01  1.875E-01  0.000E+00  0.000E+00  0.000E+00  0.000E+00 -4.046E-01
   9.375E-01  1.875E-01  0.000E+00  0.000E+00  0.000E+00  0.000E+00 -4.501E-01
   1.000E+00  1.875E-01  0.000E+00  0.000E+00  0.000E+00  0.000E+00 -5.000E-01
   0.000E+00  2.500E-01  0.000E+00  0.000E+00  0.000E+00  0.000E+00  5.000E-01
   6.250E-02  2.500E-01  0.000E+00  0.000E+00  0.000E+00  0.000E+00  2.913E-01
   1.250E-01  2.500E-01  0.000E+00  0.000E+00  0.000E+00  0.000E+00  1.143E-01
   1.875E-01  2.500E-01  0.000E+00  0.000E+00  0.000E+00  0.000E+00 -1.431E-02
   2.500E-01  2.500E-01  0.000E+00  0.000E+00  0.000E+00  0.000E+00 -9.837E-02
   3.125E-01  2.500E-01  0.000E+00  0.000E+00  0.000E+00  0.000E+00 -1.504E-01
   3.750E-01  2.500E-01  0.000E+00  0.000E+00  0.000E+00  0.000E+00 -1.827E-01
   4.375E-01  2.500E-01  0.000E+00  0.000E+00  0.000E+00  0.000E+00 -2.040E-01
   5.000E-01  2.500E-01  0.000E+00  0.000E+00  0.000E+00  0.000E+00 -2.199E-01
   5.625E-01  2.500E-01  0.000E+00  0.000E+00  0.000E+00  0.000E+00 -2.342E-01
   6.250E-01  2.500E-01  0.000E+00  0.000E+00  0.000E+00  0.000E+00 -2.497E-01
   6.875E-01  2.500E-01  0.000E+00  0.000E+00  0.000E+00  0.000E+00 -2.688E-01
   7.500E-01  2.500E-01  0.000E+00  0.000E+00  0.000E+00  0.000E+00 -2.947E-01
   8.125E-01  2.500E-01  0.000E+00  0.000E+00  0.000E+00  0.000E+00 -3.303E-01
   8.750E-01  2.500E-01  0.000E+00  0.000E+00  0.000E+00  0.000E+00 -3.775E-01
   9.375E-01  2.500E-01  0.000E+00  0.000E+00  0.000E+00  0.000E+00 -4.357E-01
   1.000E+00  2.500E-01  0.000E+00  0.000E+00  0.000E+00  0.000E+00 -5.000E-01
   0.000E+00  3.125E-01  0.000E+00  0.000E+00  0.000E+00  0.000E+00  5.000E-01
   6.250E-02  3.125E-01  0.000E+00  0.000E+00  0.000E+00  0.000E+00  3.071E-01
   1.250E-01  3.125E-01  0.000E+00  0.000E+00  0.000E+00  0.000E+00  1.414E-01
   1.875E-01  3.125E-01  0.000E+00  0.000E+00  0.000E+00  0.000E+00  1.925E-02
   2.500E-01  3.125E-01  0.000E+00  0.000E+00  0.000E+00  0.000E+00 -6.093E-02
   3.125E-01  3.125E-01  0.000E+00  0.000E+00  0.000E+00  0.000E+00 -1.099E-01
   3.750E-01  3.125E-01  0.000E+00  0.000E+00  0.000E+00  0.000E+00 -1.393E-01
   4.375E-01  3.125E-01  0.000E+00  0.000E+00  0.000E+00  0.000E+00 -1.576E-01
   5.000E-01  3.125E-01  0.000E+00  0.000E+00  0.000E+00  0.000E+00 -1.708E-01
   5.625E-01  3.125E-01  0.000E+00  0.000E+00  0.000E+00  0.000E+00 -1.828E-01
   6.250E-01  3.125E-01  0.000E+00  0.000E+00  0.000E+00  0.000E+00 -1.967E-01
   6.875E-01  3.125E-01  0.000E+00  0.000E+00  0.000E+00  0.000E+00 -2.162E-01
   7.500E-01  3.125E-01  0.000E+00  0.000E+00  0.000E+00  0.000E+00 -2.452E-01
   8.125E-01  3.125E-01  0.000E+00  0.000E+00  0.000E+00  0.000E+00 -2.875E-01
   8.750E-01  3.125E-01  0.000E+00  0.000E+00  0.000E+00  0.000E+00 -3.458E-01
   9.375E-01  3.125E-01  0.000E+00  0.000E+00  0.000E+00  0.000E+00 -4.188E-01
   1.000E+00  3.125E-01  0.000E+00  0.000E+00  0.000E+00  0.000E+00 -5.000E-01
   0.000E+00  3.750E-01  0.000E+00  0.000E+00  0.000E+00  0.000E+00  5.000E-01
   6.250E-02  3.750E-01  0.000E+00  0.000E+00  0.000E+00  0.000E+00  3.246E-01
   1.250E-01  3.750E-01  0.000E+00  0.000E+00  0.000E+00  0.000E+00  1.720E-01
   1.875E-01  3.750E-01  0.000E+00  0.000E+00  0.000E+00  0.000E+00  5.787E-02
   2.500E-01  3.750E-01  0.000E+00  0.000E+00  0.000E+00  0.000E+00 -1.771E-02
   3.125E-01  3.750E-01  0.000E+00  0.000E+00  0.000E+00  0.000E+00 -6.350E-02
   3.750E-01  3.750E-01  0.000E+00  0.000E+00  0.000E+00  0.000E+00 -8.997E-02
   4.375E-01  3.750E-01  0.000E+00  0.000E+00  0.000E+00  0.000E+00 -1.056E-01
   5.000E-01  3.750E-01  0.000E+00  0.000E+00  0.000E+00  0.000E+00 -1.163E-01
   5.625E-01  3.750E-01  0.000E+00  0.000E+00  0.000E+00  0.000E+00 -1.261E-01
   6.250E-01  3.750E-01  0.000E+00  0.000E+00  0.000E+00  0.000E+00 -1.390E-01
   6.875E-01  3.750E-01  0.000E+00  0.000E+00  0.000E+00  0.000E+00 -1.592E-01
   7.500E-01  3.750E-01  0.000E+00  0.000E+00  0.000E+00  0.000E+00 -1.916E-01
   8.125E-01  3.750E-01  0.000E+00  0.000E+00  0.000E+00  0.000E+00 -2.412E-01
   8.750E-01  3.750E-01  0.000E+00  0.000E+00  0.000E+00  0.000E+00 -3.114E-01
   9.375E-01  3.750E-01  0.000E+00  0.000E+00  0.000E+00  0.000E+00 -4.006E-01
   1.000E+00  3.750E-01  0.000E+00  0.000E+00  0.000E+00  0.000E+00 -5.000E-01
   0.000E+00  4.375E-01  0.000E+00  0.000E+00  0.000E+00  0.000E+00  5.000E-01
   6.250E-02  4.375E-01  0.000E+00  0.000E+00  0.000E+00  0.000E+00  3.431E-01
   1.250E-01  4.375E-01  0.000E+00  0.000E+00  0.000E+00  0.000E+00  2.052E-01
   1.875E-01  4.375E-01  0.000E+00  0.000E+00  0.000E+00  0.000E+00  1.006E-01
   2.500E-01  4.375E-01  0.000E+00  0.000E+00  0.000E+00  0.000E+00  3.038E-02
   3.125E-01  4.375E-01  0.000E+00  0.000E+00  0.000E+00  0.000E+00 -1.224E-02
   3.750E-01  4.375E-01  0.000E+00  0.000E+00  0.000E+00  0.000E+00 -3.636E-02
   4.375E-01  4.375E-01  0.000E+00  0.000E+00  0.000E+00  0.000E+00 -4.993E-02
   5.000E-01  4.375E-01  0.000E+00  0.000E+00  0.000E+00  0.000E+00 -5.876E-02
   5.625E-01  4.375E-01  0.000E+00  0.000E+00  0.000E+00  0.000E+00 -6.724E-02
   6.250E-01  4.375E-01  0.000E+00  0.000E+00  0.000E+00  0.000E+00 -7.954E-02
   6.875E-01  4.375E-01  0.000E+00  0.000E+00  0.000E+00  0.000E+00 -1.006E-01
   7.500E-01  4.375E-01  0.000E+00  0.000E+00  0.000E+00  0.000E+00 -1.366E-01
   8.125E-01  4.375E-01  0.000E+00  0.000E+00  0.000E+00  0.000E+00 -1.936E-01
   8.750E-01  4.375E-01  0.000E+00  0.000E+00  0.000E+00  0.000E+00 -2.758E-01
   9.375E-01  4.375E-01  0.000E+00  0.000E+00  0.000E+00  0.000E+00 -3.815E-01
   1.000E+00  4.375E-01  0.000E+00  0.000E+00  0.000E+00  0.000E+00 -5.000E-01
   0.000E+00  5.000E-01  0.000E+00  0.000E+00  0.000E+00  0.000E+00  5.000E-01
   6.250E-02  5.000E-01  0.000E+00  0.000E+00  0.000E+00  0.000E+00  3.622E-01
   1.250E-01  5.000E-01  0.000E+00  0.000E+00  0.000E+00  0.000E+00  2.401E-01
   1.875E-01  5.000E-01  0.000E+00  0.000E+00  0.000E+00  0.000E+00  1.463E-01
   2.500E-01  5.000E-01  0.000E+00  0.000E+00  0.000E+00  0.000E+00  8.228E-02
   3.125E-01  5.000E-01  0.000E+00  0.000E+00  0.000E+00  0.000E+00  4.292E-02
   3.750E-01  5.000E-01  0.000E+00  0.000E+00  0.000E+00  0.000E+00  2.053E-02
   4.375E-01  5.000E-01  0.000E+00  0.000E+00  0.000E+00  0.000E+00  8.068E-03
   5.000E-01  5.000E-01  0.000E+00  0.000E+00  0.000E+00  0.000E+00  5.533E-12
   5.625E-01  5.000E-01  0.000E+00  0.000E+00  0.000E+00  0.000E+00 -8.068E-03
   6.250E-01  5.000E-01  0.000E+00  0.000E+00  0.000E+00  0.000E+00 -2.053E-02
   6.875E-01  5.000E-01  0.000E+00  0.000E+00  0.000E+00  0.000E+00 -4.292E-02
   7.500E-01  5.000E-01  0.000E+00  0.000E+00  0.000E+00  0.000E+00 -8.228E-02
   8.125E-01  5.000E-01  0.000E+00  0.000E+00  0.000E+00  0.000E+00 -1.463E-01
   8.750E-01  5.000E-01  0.000E+00  0.000E+00  0.000E+00  0.000E+00 -2.401E-01
   9.375E-01  5.000E-01  0.000E+00  0.000E+00  0.000E+00  0.000E+00 -3.622E-01
   1.000E+00  5.000E-01  0.000E+00  0.000E+00  0.000E+00  0.000E+00 -5.000E-01
   0.000E+00  5.625E-01  0.000E+00  0.000E+00  0.000E+00  0.000E+00  5.000E-01
   6.250E-02  5.625E-01  0.000E+00  0.000E+00  0.000E+00  0.000E+00  3.815E-01
   1.250E-01  5.625E-01  0.000E+00  0.000E+00  0.000E+00  0.000E+00  2.758E-01
   1.875E-01  5.625E-01  0.000E+00  0.000E+00  0.000E+00  0.000E+00  1.936E-01
   2.500E-01  5.625E-01  0.000E+00  0.000E+00  0.000E+00  0.000E+00  1.366E-01
   3.125E-01  5.625E-01  0.000E+00  0.000E+00  0.000E+00  0.000E+00  1.006E-01
   3.750E-01  5.625E-01  0.000E+00  0.000E+00  0.000E+00  0.000E+00  7.954E-02
   4.375E-01  5.625E-01  0.000E+00  0.000E+00  0.000E+00  0.000E+00  6.724E-02
   5.000E-01  5.625E-01  0.000E+00  0.000E+00  0.000E+00  0.000E+00  5.876E-02
   5.625E-01  5.625E-01  0.000E+00  0.000E+00  0.000E+00  0.000E+00  4.993E-02
   6.250E-01  5.625E-01  0.000E+00  0.000E+00  0.000E+00  0.000E+00  3.636E-02
   6.875E-01  5.625E-01  0.000E+00  0.000E+00  0.000E+00  0.000E+00  1.224E-02
   7.500E-01  5.625E-01  0.000E+00  0.000E+00  0.000E+00  0.000E+00 -3.038E-02
   8.125E-01  5.625E-01  0.000E+00  0.000E+00  0.000E+00  0.000E+00 -1.006E-01
   8.750E-01  5.625E-01  0.000E+00  0.000E+00  0.000E+00  0.000E+00 -2.052E-01
   9.375E-01  5.625E-01  0.000E+00  0.000E+00  0.000E+00  0.000E+00 -3.431E-01
   1.000E+00  5.625E-01  0.000E+00  0.000E+00  0.000E+00  0.000E+00 -5.000E-01
   0.000E+00  6.250E-01  0.000E+00  0.000E+00  0.000E+00  0.000E+00  5.000E-01
   6.250E-02  6.250E-01  0.000E+00  0.000E+00  0.000E+00  0.000E+00  4.006E-01
   1.250E-01  6.250E-01  0.000E+00  0.000E+00  0.000E+00  0.000E+00  3.114E-01
   1.875E-01  6.250E-01  0.000E+00  0.000E+00  0.000E+00  0.000E+00  2.412E-01
   2.500E-01  6.250E-01  0.000E+00  0.000E+00  0.000E+00  0.000E+00  1.916E-01
   3.125E-01  6.250E-01  0.000E+00  0.000E+00  0.000E+00  0.000E+00  1.592E-01
   3.750E-01  6.250E-01  0.000E+00  0.000E+00  0.000E+00  0.000E+00  1.390E-01
   4.375E-01  6.250E-01  0.000E+00  0.000E+00  0.000E+00  0.000E+00  1.261E-01
   5.000E-01  6.250E-01  0.000E+00  0.000E+00  0.000E+00  0.000E+00  1.163E-01
   5.625E-01  6.250E-01  0.000E+00  0.000E+00  0.000E+00  0.000E+00  1.056E-01
   6.250E-01  6.250E-01  0.000E+00  0.000E+00  0.000E+00  0.000E+00  8.997E-02
   6.875E-01  6.250E-01  0.000E+00  0.000E+00  0.000E+00  0.000E+00  6.350E-02
   7.500E-01  6.250E-01  0.000E+00  0.000E+00  0.000E+00  0.000E+00  1.771E-02
   8.125E-01  6.250E-01  0.000E+00  0.000E+00  0.000E+00  0.000E+00 -5.787E-02
   8.750E-01  6.250E-01  0.000E+00  0.000E+00  0.000E+00  0.000E+00 -1.720E-01
   9.375E-01  6.250E-01  0.000E+00  0.000E+00  0.000E+00  0.000E+00 -3.246E-01
   1.000E+00  6.250E-01  0.000E+00  0.000E+00  0.000E+00  0.000E+00 -5.000E-01
   0.000E+00  6.875E-01  0.000E+00  0.000E+00  0.000E+00  0.000E+00  5.000E-01
   6.250E-02  6.875E-01  0.000E+00  0.000E+00  0.000E+00  0.000E+00  4.188E-01
   1.250E-01  6.875E-01  0.000E+00  0.000E+00  0.000E+00  0.000E+00  3.458E-01
   1.875E-01  6.875E-01  0.000E+00  0.000E+00  0.000E+00  0.000E+00  2.875E-01
   2.500E-01  6.875E-01  0.000E+00  0.000E+00  0.000E+00  0.000E+00  2.452E-01
   3.125E-01  6.875E-01  0.000E+00  0.000E+00  0.000E+00  0.000E+00  2.162E-01
   3.750E-01  6.875E-01  0.000E+00  0.000E+00  0.000E+00  0.000E+00  1.967E-01
   4.375E-01  6.875E-01  0.000E+00  0.000E+00  0.000E+00  0.000E+00  1.828E-01
   5.000E-01  6.875E-01  0.000E+00  0.000E+00  0.000E+00  0.000E+00  1.708E-01
   5.625E-01  6.875E-01  0.000E+00  0.000E+00  0.000E+00  0.000E+00  1.576E-01
   6.250E-01  6.875E-01  0.000E+00  0.000E+00  0.000E+00  0.000E+00  1.393E-01
   6.875E-01  6.875E-01  0.000E+00  0.000E+00  0.000E+00  0.000E+00  1.099E-01
   7.500E-01  6.875E-01  0.000E+00  0.000E+00  0.000E+00  0.000E+00  6.093E-02
   8.125E-01  6.875E-01  0.000E+00  0.000E+00  0.000E+00  0.000E+00 -1.925E-02
   8.750E-01  6.875E-01  0.000E+00  0.000E+00  0.000E+00  0.000E+00 -1.414E-01
   9.375E-01  6.875E-01  0.000E+00  0.000E+00  0.000E+00  0.000E+00 -3.071E-01
   1.000E+00  6.875E-01  0.000E+00  0.000E+00  0.000E+00  0.000E+00 -5.000E-01
   0.000E+00  7.500E-01  0.000E+00  0.000E+00  0.000E+00  0.000E+00  5.000E-01
   6.250E-02  7.500E-01  0.000E+00  0.000E+00  0.000E+00  0.000E+00  4.357E-01
   1.250E-01  7.500E-01  0.000E+00  0.000E+00  0.000E+00  0.000E+00  3.775E-01
   1.875E-01  7.500E-01  0.000E+00  0.000E+00  0.000E+00  0.000E+00  3.303E-01
   2.500E-01  7.500E-01  0.000E+00  0.000E+00  0.000E+00  0.000E+00  2.947E-01
   3.125E-01  7.500E-01  0.000E+00  0.000E+00  0.000E+00  0.000E+00  2.688E-01
   3.750E-01  7.500E-01  0.000E+00  0.000E+00  0.000E+00  0.000E+00  2.497E-01
   4.375E-01  7.500E-01  0.000E+00  0.000E+00  0.000E+00  0.000E+00  2.342E-01
   5.000E-01  7.500E-01  0.000E+00  0.000E+00  0.000E+00  0.000E+00  2.199E-01
   5.625E-01  7.500E-01  0.000E+00  0.000E+00  0.000E+00  0.000E+00  2.040E-01
   6.250E-01  7.500E-01  0.000E+00  0.000E+00  0.000E+00  0.000E+00  1.827E-01
   6.875E-01  7.500E-01  0.000E+00  0.000E+00  0.000E+00  0.000E+00  1.504E-01
   7.500E-01  7.500E-01  0.000E+00  0.000E+00  0.000E+00  0.000E+00  9.837E-02
   8.125E-01  7.500E-01  0.000E+00  0.000E+00  0.000E+00  0.000E+00  1.431E-02
   8.750E-01  7.500E-01  0.000E+00  0.000E+00  0.000E+00  0.000E+00 -1.143E-01
   9.375E-01  7.500E-01  0.000E+00  0.000E+00  0.000E+00  0.000E+00 -2.913E-01
   1.000E+00  7.500E-01  0.000E+00  0.000E+00  0.000E+00  0.000E+00 -5.000E-01
   0.000E+00  8.125E-01  0.000E+00  0.000E+00  0.000E+00  0.000E+00  5.000E-01
   6.250E-02  8.125E-01  0.000E+00  0.000E+00  0.000E+00  0.000E+00  4.501E-01
   1.250E-01  8.125E-01  0.000E+00  0.000E+00  0.000E+00  0.000E+00  4.046E-01
   1.875E-01  8.125E-01  0.000E+00  0.000E+00  0.000E+00  0.000E+00  3.668E-01
   2.500E-01  8.125E-01  0.000E+00  0.000E+00  0.000E+00  0.000E+00  3.369E-01
   3.125E-01  8.125E-01  0.000E+00  0.000E+00  0.000E+00  0.000E+00  3.133E-01
   3.750E-01  8.125E-01  0.000E+00  0.000E+00  0.000E+00  0.000E+00  2.941E-01
   4.375E-01  8.125E-01  0.000E+00  0.000E+00  0.000E+00  0.000E+00  2.771E-01
   5.000E-01  8.125E-01  0.000E+00  0.000E+00  0.000E+00  0.000E+00  2.605E-01
   5.625E-01  8.125E-01  0.000E+00  0.000E+00  0.000E+00  0.000E+00  2.419E-01
   6.250E-01  8.125E-01  0.000E+00  0.000E+00  0.000E+00  0.000E+00  2.179E-01
   6.875E-01  8.125E-01  0.000E+00  0.000E+00  0.000E+00  0.000E+00  1.830E-01
   7.500E-01  8.125E-01  0.000E+00  0.000E+00  0.000E+00  0.000E+00  1.285E-01
   8.125E-01  8.125E-01  0.000E+00  0.000E+00  0.000E+00  0.000E+00  4.161E-02
   8.750E-01  8.125E-01  0.000E+00  0.000E+00  0.000E+00  0.000E+00 -9.185E-02
   9.375E-01  8.125E-01  0.000E+00  0.000E+00  0.000E+00  0.000E+00 -2.778E-01
   1.000E+00  8.125E-01  0.000E+00  0.000E+00  0.000E+00  0.000E+00 -5.000E-01
   0.000E+00  8.750E-01  0.000E+00  0.000E+00  0.000E+00  0.000E+00  5.000E-01
   6.250E-02  8.750E-01  0.000E+00  0.000E+00  0.000E+00  0.000E+00  4.610E-01
   1.250E-01  8.750E-01  0.000E+00  0.000E+00  0.000E+00  0.000E+00  4.251E-01
   1.875E-01  8.750E-01  0.000E+00  0.000E+00  0.000E+00  0.000E+00  3.942E-01
   2.500E-01  8.750E-01  0.000E+00  0.000E+00  0.000E+00  0.000E+00  3.681E-01
   3.125E-01  8.750E-01  0.000E+00  0.000E+00  0.000E+00  0.000E+00  3.459E-01
   3.750E-01  8.750E-01  0.000E+00  0.000E+00  0.000E+00  0.000E+00  3.263E-01
   4.375E-01  8.750E-01  0.000E+00  0.000E+00  0.000E+00  0.000E+00  3.079E-01
   5.000E-01  8.750E-01  0.000E+00  0.000E+00  0.000E+00  0.000E+00  2.894E-01
   5.625E-01  8.750E-01  0.000E+00  0.000E+00  0.000E+00  0.000E+00  2.686E-01
   6.250E-01  8.750E-01  0.000E+00  0.000E+00  0.000E+00  0.000E+00  2.424E-01
   6.875E-01  8.750E-01  0.000E+00  0.000E+00  0.000E+00  0.000E+00  2.055E-01
   7.500E-01  8.750E-01  0.000E+00  0.000E+00  0.000E+00  0.000E+00  1.492E-01
   8.125E-01  8.750E-01  0.000E+00  0.000E+00  0.000E+00  0.000E+00  6.055E-02
   8.750E-01  8.750E-01  0.000E+00  0.000E+00  0.000E+00  0.000E+00 -7.564E-02
   9.375E-01  8.750E-01  0.000E+00  0.000E+00  0.000E+00  0.000E+00 -2.675E-01
   1.000E+00  8.750E-01  0.000E+00  0.000E+00  0.000E+00  0.000E+00 -5.000E-01
   0.000E+00  9.375E-01  0.000E+00  0.000E+00  0.000E+00  0.000E+00  5.000E-01
   6.250E-02  9.375E-01  0.000E+00  0.000E+00  0.000E+00  0.000E+00  4.675E-01
   1.250E-01  9.375E-01  0.000E+00  0.000E+00  0.000E+00  0.000E+00  4.372E-01
   1.875E-01  9.375E-01  0.000E+00  0.000E+00  0.000E+00  0.000E+00  4.100E-01
   2.500E-01  9.375E-01  0.000E+00  0.000E+00  0.000E+00  0.000E+00  3.859E-01
   3.125E-01  9.375E-01  0.000E+00  0.000E+00  0.000E+00  0.000E+00  3.642E-01
   3.750E-01  9.375E-01  0.000E+00  0.000E+00  0.000E+00  0.000E+00  3.442E-01
   4.375E-01  9.375E-01  0.000E+00  0.000E+00  0.000E+00  0.000E+00  3.249E-01
   5.000E-01  9.375E-01  0.000E+00  0.000E+00  0.000E+00  0.000E+00  3.050E-01
   5.625E-01  9.375E-01  0.000E+00  0.000E+00  0.000E+00  0.000E+00  2.827E-01
   6.250E-01  9.375E-01  0.000E+00  0.000E+00  0.000E+00  0.000E+00  2.549E-01
   6.875E-01  9.375E-01  0.000E+00  0.000E+00  0.000E+00  0.000E+00  2.163E-01
   7.500E-01  9.375E-01  0.000E+00  0.000E+00  0.000E+00  0.000E+00  1.585E-01
   8.125E-01  9.375E-01  0.000E+00  0.000E+00  0.000E+00  0.000E+00  6.893E-02
   8.750E-01  9.375E-01  0.000E+00  0.000E+00  0.000E+00  0.000E+00 -6.810E-02
   9.375E-01  9.375E-01  0.000E+00  0.000E+00  0.000E+00  0.000E+00 -2.623E-01
   1.000E+00  9.375E-01  0.000E+00  0.000E+00  0.000E+00  0.000E+00 -5.000E-01
   0.000E+00  1.000E+00  0.000E+00  0.000E+00  0.000E+00  0.000E+00  5.000E-01
   6.250E-02  1.000E+00  0.000E+00  0.000E+00  0.000E+00  0.000E+00  4.696E-01
   1.250E-01  1.000E+00  0.000E+00  0.000E+00  0.000E+00  0.000E+00  4.409E-01
   1.875E-01  1.000E+00  0.000E+00  0.000E+00  0.000E+00  0.000E+00  4.149E-01
   2.500E-01  1.000E+00  0.000E+00  0.000E+00  0.000E+00  0.000E+00  3.913E-01
   3.125E-01  1.000E+00  0.000E+00  0.000E+00  0.000E+00  0.000E+00  3.697E-01
   3.750E-01  1.000E+00  0.000E+00  0.000E+00  0.000E+00  0.000E+00  3.495E-01
   4.375E-01  1.000E+00  0.000E+00  0.000E+00  0.000E+00  0.000E+00  3.298E-01
   5.000E-01  1.000E+00  0.000E+00  0.000E+00  0.000E+00  0.000E+00  3.094E-01
   5.625E-01  1.000E+00  0.000E+00  0.000E+00  0.000E+00  0.000E+00  2.866E-01
   6.250E-01  1.000E+00  0.000E+00  0.000E+00  0.000E+00  0.000E+00  2.581E-01
   6.875E-01  1.000E+00  0.000E+00  0.000E+00  0.000E+00  0.000E+00  2.187E-01
   7.500E-01  1.000E+00  0.000E+00  0.000E+00  0.000E+00  0.000E+00  1.603E-01
   8.125E-01  1.000E+00  0.000E+00  0.000E+00  0.000E+00  0.000E+00  7.025E-02
   8.750E-01  1.000E+00  0.000E+00  0.000E+00  0.000E+00  0.000E+00 -6.681E-02
   9.375E-01  1.000E+00  0.000E+00  0.000E+00  0.000E+00  0.000E+00 -2.612E-01
   1.000E+00  1.000E+00  0.000E+00  0.000E+00  0.000E+00  0.000E+00 -5.000E-01
   0.000E+00  0.000E+00  6.250E-02  0.000E+00  0.000E+00  0.000E+00  5.000E-01
   6.250E-02  0.000E+00  6.250E-02  0.000E+00  0.000E+00  2.776E-17  2.544E-01
   1.250E-01  0.000E+00  6.250E-02  2.220E-16  0.000E+00 -5.551E-17  5.684E-02
   1.875E-01  0.000E+00  6.250E-02  0.000E+00  0.000E+00  2.776E-17 -7.978E-02
   2.500E-01  0.000E+00  6.250E-02  0.000E+00  0.000E+00 -2.776E-17 -1.679E-01
   3.125E-01  0.000E+00  6.250E-02 -2.220E-16  0.000E+00  0.000E+00 -2.245E-01
   3.750E-01  0.000E+00  6.250E-02 -2.220E-16  0.000E+00  0.000E+00 -2.623E-01
   4.375E-01  0.000E+00  6.250E-02  0.000E+00  0.000E+00  1.388E-17 -2.899E-01
   5.000E-01  0.000E+00  6.250E-02  0.000E+00  0.000E+00 -6.939E-18 -3.121E-01
   5.625E-01  0.000E+00  6.250E-02 -2.220E-16  0.000E+00  6.939E-18 -3.319E-01
   6.250E-01  0.000E+00  6.250E-02 -2.220E-16  0.000E+00 -6.939E-18 -3.512E-01
   6.875E-01  0.000E+00  6.250E-02 -2.220E-16  0.000E+00  1.388E-17 -3.710E-01
   7.500E-01  0.000E+00  6.250E-02  0.000E+00  0.000E+00  0.000E+00 -3.922E-01
   8.125E-01  0.000E+00  6.250E-02  1.110E-16  0.000E+00  2.776E-17 -4.155E-01
   8.750E-01  0.000E+00  6.250E-02  0.000E+00  0.000E+00  0.000E+00 -4.413E-01
   9.375E-01  0.000E+00  6.250E-02  5.551E-17  0.000E+00  1.388E-17 -4.697E-01
   1.000E+00  0.000E+00  6.250E-02  0.000E+00  0.000E+00  0.000E+00 -5.000E-01
   0.000E+00  6.250E-02  6.250E-02  0.000E+00  0.000E+00  0.000E+00  5.000E-01
   6.250E-02  6.250E-02  6.250E-02 -3.979E+00  4.097E+00 -1.268E+00  2.546E-01
   1.250E-01  6.250E-02  6.250E-02 -7.088E+00  2.597E+00 -1.327E+00  5.693E-02
   1.875E-01  6.250E-02  6.250E-02 -8.464E+00  1.144E+00 -1.086E+00 -7.961E-02
   2.500E-01  6.250E-02  6.250E-02 -8.836E+00  4.247E-01 -7.860E-01 -1.670E-01
   3.125E-01  6.250E-02  6.250E-02 -8.864E+00  2.045E-01 -5.237E-01 -2.226E-01
   3.750E-01  6.250E-02  6.250E-02 -8.898E+00  2.195E-01 -3.329E-01 -2.596E-01
   4.375E-01  6.250E-02  6.250E-02 -9.058E+00  3.058E-01 -2.164E-01 -2.863E-01
   5.000E-01  6.250E-02  6.250E-02 -9.322E+00  3.700E-01 -1.667E-01 -3.078E-01
   5.625E-01  6.250E-02  6.250E-02 -9.577E+00  3.503E-01 -1.763E-01 -3.271E-01
   6.250E-01  6.250E-02  6.250E-02 -9.647E+00  1.947E-01 -2.409E-01 -3.459E-01
   6.875E-01  6.250E-02  6.250E-02 -9.303E+00 -1.328E-01 -3.536E-01 -3.655E-01
   7.500E-01  6.250E-02  6.250E-02 -8.327E+00 -6.251E-01 -4.823E-01 -3.867E-01
   8.125E-01  6.250E-02  6.250E-02 -6.593E+00 -1.191E+00 -5.598E-01 -4.104E-01
   8.750E-01  6.250E-02  6.250E-02 -4.194E+00 -1.606E+00 -5.043E-01 -4.374E-01
   9.375E-01  6.250E-02  6.250E-02 -1.623E+00 -1.458E+00 -2.749E-01 -4.676E-01
   1.000E+00  6.250E-02  6.250E-02  0.000E+00  0.000E+00  0.000E+00 -5.000E-01
   0.000E+00  1.250E-01  6.250E-02  0.000E+00  0.000E+00  0.000E+00  5.000E-01
   6.250E-02  1.250E-01  6.250E-02 -3.372E+00  9.254E+00 -1.635E+00  2.587E-01
   1.250E-01  1.250E-01  6.250E-02 -6.846E+00  6.906E+00 -1.642E+00  6.268E-02
   1.875E-01  1.250E-01  6.250E-02 -9.038E+00  3.793E+00 -1.225E+00 -7.296E-02
   2.500E-01  1.250E-01  6.250E-02 -1.022E+01  1.904E+00 -7.897E-01 -1.590E-01
   3.125E-01  1.250E-01  6.250E-02 -1.088E+01  1.069E+00 -4.521E-01 -2.126E-01
   3.750E-01  1.250E-01  6.250E-02 -1.134E+01  8.274E-01 -2.212E-01 -2.475E-01
   4.375E-01  1.250E-01  6.250E-02 -1.177E+01  8.149E-01 -7.761E-02 -2.724E-01
   5.000E-01  1.250E-01  6.250E-02 -1.218E+01  7.881E-01 -3.618E-03 -2.922E-01
   5.625E-01  1.250E-01  6.250E-02 -1.247E+01  5.762E-01  8.610E-03 -3.099E-01
   6.250E-01  1.250E-01  6.250E-02 -1.245E+01  5.287E-02 -4.427E-02 -3.275E-01
   6.875E-01  1.250E-01  6.250E-02 -1.189E+01 -8.484E-01 -1.625E-01 -3.464E-01
   7.500E-01  1.250E-01  6.250E-02 -1.055E+01 -2.086E+00 -3.140E-01 -3.679E-01
   8.125E-01  1.250E-01  6.250E-02 -8.302E+00 -3.429E+00 -4.249E-01 -3.936E-01
   8.750E-01  1.250E-01  6.250E-02 -5.256E+00 -4.340E+00 -3.963E-01 -4.246E-01
   9.375E-01  1.250E-01  6.250E-02 -2.019E+00 -3.819E+00 -1.775E-01 -4.607E-01
   1.000E+00  1.250E-01  6.250E-02  0.000E+00  1.110E-16  0.000E+00 -5.000E-01
   0.000E+00  1.875E-01  6.250E-02  0.000E+00 -4.441E-16  0.000E+00  5.000E-01
   6.250E-02  1.875E-01  6.250E-02 -2.145E+00  1.370E+01 -1.555E+00  2.687E-01
   1.250E-01  1.875E-01  6.250E-02 -5.019E+00  1.125E+01 -1.508E+00  7.825E-02
   1.875E-01  1.875E-01  6.250E-02 -7.305E+00  6.867E+00 -1.011E+00 -5.470E-02
   2.500E-01  1.875E-01  6.250E-02 -8.877E+00  3.826E+00 -5.376E-01 -1.388E-01
   3.125E-01  1.875E-01  6.250E-02 -9.932E+00  2.227E+00 -2.004E-01 -1.903E-01
   3.750E-01  1.875E-01  6.250E-02 -1.069E+01  1.538E+00  2.401E-02 -2.229E-01
   4.375E-01  1.875E-01  6.250E-02 -1.128E+01  1.255E+00  1.765E-01 -2.452E-01
   5.000E-01  1.875E-01  6.250E-02 -1.177E+01  1.005E+00  2.800E-01 -2.626E-01
   5.625E-01  1.875E-01  6.250E-02 -1.211E+01  5.134E-01  3.342E-01 -2.781E-01
   6.250E-01  1.875E-01  6.250E-02 -1.215E+01 -4.214E-01  3.202E-01 -2.940E-01
   6.875E-01  1.875E-01  6.250E-02 -1.171E+01 -1.909E+00  2.219E-01 -3.122E-01
   7.500E-01  1.875E-01  6.250E-02 -1.053E+01 -3.897E+00  5.626E-02 -3.350E-01
   8.125E-01  1.875E-01  6.250E-02 -8.420E+00 -6.031E+00 -1.099E-01 -3.646E-01
   8.750E-01  1.875E-01  6.250E-02 -5.426E+00 -7.447E+00 -1.639E-01 -4.028E-01
   9.375E-01  1.875E-01  6.250E-02 -2.114E+00 -6.474E+00 -3.434E-02 -4.492E-01
   1.000E+00  1.875E-01  6.250E-02  0.000E+00 -1.110E-16  0.000E+00 -5.000E-01
   0.000E+00  2.500E-01  6.250E-02  0.000E+00  0.000E+00  0.000E+00  5.000E-01
   6.250E-02  2.500E-01  6.250E-02 -9.960E-01  1.699E+01 -1.260E+00  2.826E-01
   1.250E-01  2.500E-01  6.250E-02 -2.995E+00  1.493E+01 -1.173E+00  1.010E-01
   1.875E-01  2.500E-01  6.250E-02 -4.989E+00  9.719E+00 -6.621E-01 -2.732E-02
   2.500E-01  2.500E-01  6.250E-02 -6.596E+00  5.701E+00 -2.072E-01 -1.085E-01
   3.125E-01  2.500E-01  6.250E-02 -7.780E+00  3.339E+00  8.944E-02 -1.574E-01
   3.750E-01  2.500E-01  6.250E-02 -8.641E+00  2.135E+00  2.793E-01 -1.871E-01
   4.375E-01  2.500E-01  6.250E-02 -9.302E+00  1.513E+00  4.231E-01 -2.066E-01
   5.000E-01  2.500E-01  6.250E-02 -9.844E+00  1.002E+00  5.475E-01 -2.211E-01
   5.625E-01  2.500E-01  6.250E-02 -1.028E+01  2.405E-01  6.434E-01 -2.340E-01
   6.250E-01  2.500E-01  6.250E-02 -1.052E+01 -1.047E+00  6.762E-01 -2.481E-01
   6.875E-01  2.500E-01  6.250E-02 -1.040E+01 -3.035E+00  6.109E-01 -2.660E-01
   7.500E-01  2.500E-01  6.250E-02 -9.645E+00 -5.702E+00  4.405E-01 -2.909E-01
   8.125E-01  2.500E-01  6.250E-02 -7.988E+00 -8.618E+00  2.169E-01 -3.262E-01
   8.750E-01  2.500E-01  6.250E-02 -5.338E+00 -1.060E+01  6.396E-02 -3.742E-01
   9.375E-01  2.500E-01  6.250E-02 -2.159E+00 -9.244E+00  8.626E-02 -4.340E-01