 VARIABLES = "X", "Y", "U", "V", "T"
 ZONE I= 17,J= 17, F=POINT
   0.000E+00  0.000E+00  0.000E+00  0.000E+00  5.000E-01
   6.250E-02  0.000E+00  0.000E+00  0.000E+00  1.096E-01
   1.250E-01  0.000E+00  0.000E+00  0.000E+00 -1.250E-01
   1.875E-01  0.000E+00  0.000E+00  0.000E+00 -2.336E-01
   2.500E-01  0.000E+00  0.000E+00  0.000E+00 -2.824E-01
   3.125E-01  0.000E+00  0.000E+00  0.000E+00 -3.069E-01
   3.750E-01  0.000E+00  0.000E+00  0.000E+00 -3.222E-01
   4.375E-01  0.000E+00  0.000E+00  0.000E+00 -3.342E-01
   5.000E-01  0.000E+00  0.000E+00  0.000E+00 -3.454E-01
   5.625E-01  0.000E+00  0.000E+00  0.000E+00 -3.569E-01
   6.250E-01  0.000E+00  0.000E+00  0.000E+00 -3.692E-01
   6.875E-01  0.000E+00  0.000E+00  0.000E+00 -3.828E-01
   7.500E-01  0.000E+00  0.000E+00  0.000E+00 -3.982E-01
   8.125E-01  0.000E+00  0.000E+00  0.000E+00 -4.166E-01
   8.750E-01  0.000E+00  0.000E+00  0.000E+00 -4.396E-01
   9.375E-01  0.000E+00  0.000E+00  0.000E+00 -4.680E-01
   1.000E+00  0.000E+00  0.000E+00  0.000E+00 -5.000E-01
   0.000E+00  6.250E-02  0.000E+00  0.000E+00  5.000E-01
   6.250E-02  6.250E-02 -1.482E+01  9.967E+00  1.082E-01
   1.250E-01  6.250E-02 -2.276E+01  2.446E+00 -1.270E-01
   1.875E-01  6.250E-02 -2.458E+01 -1.193E+00 -2.343E-01
   2.500E-01  6.250E-02 -2.427E+01 -1.529E+00 -2.809E-01
   3.125E-01  6.250E-02 -2.395E+01 -7.369E-01 -3.038E-01
   3.750E-01  6.250E-02 -2.425E+01  2.185E-01 -3.179E-01
   4.375E-01  6.250E-02 -2.528E+01  1.043E+00 -3.288E-01
   5.000E-01  6.250E-02 -2.686E+01  1.636E+00 -3.387E-01
   5.625E-01  6.250E-02 -2.867E+01  1.858E+00 -3.488E-01
   6.250E-01  6.250E-02 -3.012E+01  1.481E+00 -3.594E-01
   6.875E-01  6.250E-02 -3.038E+01  2.239E-01 -3.712E-01
   7.500E-01  6.250E-02 -2.846E+01 -2.026E+00 -3.851E-01
   8.125E-01  6.250E-02 -2.356E+01 -4.853E+00 -4.035E-01
   8.750E-01  6.250E-02 -1.557E+01 -7.028E+00 -4.287E-01
   9.375E-01  6.250E-02 -6.097E+00 -6.310E+00 -4.619E-01
   1.000E+00  6.250E-02  0.000E+00  0.000E+00 -5.000E-01
   0.000E+00  1.250E-01  0.000E+00  0.000E+00  5.000E-01
   6.250E-02  1.250E-01 -1.365E+01  2.276E+01  1.117E-01
   1.250E-01  1.250E-01 -2.440E+01  9.757E+00 -1.227E-01
   1.875E-01  1.250E-01 -2.968E+01  1.514E+00 -2.272E-01
   2.500E-01  1.250E-01 -3.193E+01 -6.305E-01 -2.700E-01
   3.125E-01  1.250E-01 -3.312E+01 -2.169E-02 -2.894E-01
   3.750E-01  1.250E-01 -3.420E+01  1.330E+00 -3.006E-01
   4.375E-01  1.250E-01 -3.550E+01  2.612E+00 -3.085E-01
   5.000E-01  1.250E-01 -3.696E+01  3.393E+00 -3.151E-01
   5.625E-01  1.250E-01 -3.827E+01  3.252E+00 -3.209E-01
   6.250E-01  1.250E-01 -3.887E+01  1.708E+00 -3.268E-01
   6.875E-01  1.250E-01 -3.797E+01 -1.655E+00 -3.338E-01
   7.500E-01  1.250E-01 -3.477E+01 -6.815E+00 -3.448E-01
   8.125E-01  1.250E-01 -2.854E+01 -1.289E+01 -3.642E-01
   8.750E-01  1.250E-01 -1.905E+01 -1.747E+01 -3.968E-01
   9.375E-01  1.250E-01 -7.700E+00 -1.557E+01 -4.444E-01
   1.000E+00  1.250E-01  0.000E+00  0.000E+00 -5.000E-01
   0.000E+00  1.875E-01  0.000E+00  0.000E+00  5.000E-01
   6.250E-02  1.875E-01 -1.051E+01  3.437E+01  1.250E-01
   1.250E-01  1.875E-01 -2.106E+01  1.848E+01 -1.043E-01
   1.875E-01  1.875E-01 -2.750E+01  6.338E+00 -2.057E-01
   2.500E-01  1.875E-01 -3.094E+01  1.913E+00 -2.447E-01
   3.125E-01  1.875E-01 -3.278E+01  1.535E+00 -2.605E-01
   3.750E-01  1.875E-01 -3.394E+01  2.593E+00 -2.681E-01
   4.375E-01  1.875E-01 -3.486E+01  3.801E+00 -2.720E-01
   5.000E-01  1.875E-01 -3.566E+01  4.411E+00 -2.738E-01
   5.625E-01  1.875E-01 -3.622E+01  3.761E+00 -2.738E-01
   6.250E-01  1.875E-01 -3.626E+01  1.175E+00 -2.733E-01
   6.875E-01  1.875E-01 -3.533E+01 -3.875E+00 -2.748E-01
   7.500E-01  1.875E-01 -3.278E+01 -1.145E+01 -2.830E-01
   8.125E-01  1.875E-01 -2.771E+01 -2.057E+01 -3.053E-01
   8.750E-01  1.875E-01 -1.932E+01 -2.787E+01 -3.494E-01
   9.375E-01  1.875E-01 -8.304E+00 -2.536E+01 -4.182E-01
   1.000E+00  1.875E-01  0.000E+00  0.000E+00 -5.000E-01
   0.000E+00  2.500E-01  0.000E+00  0.000E+00  5.000E-01
   6.250E-02  2.500E-01 -7.387E+00  4.382E+01  1.441E-01
   1.250E-01  2.500E-01 -1.658E+01  2.675E+01 -7.740E-02
   1.875E-01  2.500E-01 -2.273E+01  1.139E+01 -1.745E-01
   2.500E-01  2.500E-01 -2.604E+01  4.642E+00 -2.096E-01
   3.125E-01  2.500E-01 -2.761E+01  2.984E+00 -2.214E-01
   3.750E-01  2.500E-01 -2.827E+01  3.418E+00 -2.253E-01
   4.375E-01  2.500E-01 -2.850E+01  4.325E+00 -2.254E-01
   5.000E-01  2.500E-01 -2.853E+01  4.744E+00 -2.226E-01
   5.625E-01  2.500E-01 -2.850E+01  3.861E+00 -2.173E-01
   6.250E-01  2.500E-01 -2.843E+01  8.244E-01 -2.108E-01
   6.875E-01  2.500E-01 -2.817E+01 -5.136E+00 -2.070E-01
   7.500E-01  2.500E-01 -2.715E+01 -1.444E+01 -2.126E-01
   8.125E-01  2.500E-01 -2.429E+01 -2.635E+01 -2.380E-01
   8.750E-01  2.500E-01 -1.818E+01 -3.687E+01 -2.945E-01
   9.375E-01  2.500E-01 -8.535E+00 -3.489E+01 -3.874E-01
   1.000E+00  2.500E-01  0.000E+00  0.000E+00 -5.000E-01
   0.000E+00  3.125E-01  0.000E+00  0.000E+00  5.000E-01
   6.250E-02  3.125E-01 -4.474E+00  5.095E+01  1.665E-01
   1.250E-01  3.125E-01 -1.196E+01  3.383E+01 -4.551E-02
   1.875E-01  3.125E-01 -1.731E+01  1.580E+01 -1.381E-01
   2.500E-01  3.125E-01 -2.001E+01  6.786E+00 -1.690E-01
   3.125E-01  3.125E-01 -2.092E+01  3.764E+00 -1.768E-01
   3.750E-01  3.125E-01 -2.086E+01  3.485E+00 -1.771E-01
   4.375E-01  3.125E-01 -2.031E+01  4.062E+00 -1.741E-01
   5.000E-01  3.125E-01 -1.958E+01  4.410E+00 -1.683E-01
   5.625E-01  3.125E-01 -1.895E+01  3.662E+00 -1.594E-01
   6.250E-01  3.125E-01 -1.871E+01  8.450E-01 -1.487E-01
   6.875E-01  3.125E-01 -1.900E+01 -5.154E+00 -1.403E-01
   7.500E-01  3.125E-01 -1.948E+01 -1.533E+01 -1.426E-01
   8.125E-01  3.125E-01 -1.902E+01 -2.955E+01 -1.693E-01
   8.750E-01  3.125E-01 -1.575E+01 -4.362E+01 -2.368E-01
   9.375E-01  3.125E-01 -8.270E+00 -4.353E+01 -3.539E-01
   1.000E+00  3.125E-01  0.000E+00  0.000E+00 -5.000E-01
   0.000E+00  3.750E-01  0.000E+00  0.000E+00  5.000E-01
   6.250E-02  3.750E-01 -1.595E+00  5.578E+01  1.914E-01
   1.250E-01  3.750E-01 -7.334E+00  3.959E+01 -1.027E-02
   1.875E-01  3.750E-01 -1.193E+01  1.944E+01 -9.864E-02
   2.500E-01  3.750E-01 -1.414E+01  8.254E+00 -1.254E-01
   3.125E-01  3.750E-01 -1.454E+01  3.830E+00 -1.290E-01
   3.750E-01  3.750E-01 -1.389E+01  2.802E+00 -1.259E-01
   4.375E-01  3.750E-01 -1.271E+01  3.048E+00 -1.207E-01
   5.000E-01  3.750E-01 -1.135E+01  3.390E+00 -1.133E-01
   5.625E-01  3.750E-01 -1.013E+01  2.990E+00 -1.032E-01
   6.250E-01  3.750E-01 -9.454E+00  8.729E-01 -9.054E-02
   6.875E-01  3.750E-01 -9.755E+00 -4.365E+00 -7.894E-02
   7.500E-01  3.750E-01 -1.106E+01 -1.442E+01 -7.759E-02
   8.125E-01  3.750E-01 -1.254E+01 -3.008E+01 -1.034E-01
   8.750E-01  3.750E-01 -1.213E+01 -4.762E+01 -1.790E-01
   9.375E-01  3.750E-01 -7.390E+00 -5.064E+01 -3.192E-01
   1.000E+00  3.750E-01  0.000E+00  0.000E+00 -5.000E-01
   0.000E+00  4.375E-01  0.000E+00  0.000E+00  5.000E-01
   6.250E-02  4.375E-01  1.252E+00  5.828E+01  2.192E-01
   1.250E-01  4.375E-01 -2.481E+00  4.416E+01  2.852E-02
   1.875E-01  4.375E-01 -6.568E+00  2.261E+01 -5.663E-02
   2.500E-01  4.375E-01 -8.720E+00  9.395E+00 -8.007E-02
   3.125E-01  4.375E-01 -9.036E+00  3.509E+00 -7.957E-02
   3.750E-01  4.375E-01 -8.172E+00  1.657E+00 -7.285E-02
   4.375E-01  4.375E-01 -6.686E+00  1.524E+00 -6.534E-02
   5.000E-01  4.375E-01 -4.949E+00  1.825E+00 -5.731E-02
   5.625E-01  4.375E-01 -3.296E+00  1.766E+00 -4.754E-02
   6.250E-01  4.375E-01 -2.135E+00  4.723E-01 -3.541E-02
   6.875E-01  4.375E-01 -1.972E+00 -3.544E+00 -2.309E-02
   7.500E-01  4.375E-01 -3.217E+00 -1.254E+01 -1.913E-02
   8.125E-01  4.375E-01 -5.668E+00 -2.848E+01 -4.283E-02
   8.750E-01  4.375E-01 -7.625E+00 -4.877E+01 -1.236E-01
   9.375E-01  4.375E-01 -5.881E+00 -5.567E+01 -2.842E-01
   1.000E+00  4.375E-01  0.000E+00  0.000E+00 -5.000E-01
   0.000E+00  5.000E-01  0.000E+00  0.000E+00  5.000E-01
   6.250E-02  5.000E-01  3.805E+00  5.826E+01  2.503E-01
   1.250E-01  5.000E-01  2.617E+00  4.741E+01  7.286E-02
   1.875E-01  5.000E-01 -8.045E-01  2.568E+01 -1.041E-02
   2.500E-01  5.000E-01 -3.254E+00  1.072E+01 -3.271E-02
   3.125E-01  5.000E-01 -3.954E+00  3.282E+00 -2.910E-02
   3.750E-01  5.000E-01 -3.289E+00  4.520E-01 -1.882E-02
   4.375E-01  5.000E-01 -1.825E+00 -1.748E-01 -8.809E-03
   5.000E-01  5.000E-01 -5.803E-07  1.429E-07 -3.076E-08
   5.625E-01  5.000E-01  1.825E+00  1.748E-01  8.809E-03
   6.250E-01  5.000E-01  3.289E+00 -4.520E-01  1.882E-02
   6.875E-01  5.000E-01  3.954E+00 -3.282E+00  2.910E-02
   7.500E-01  5.000E-01  3.254E+00 -1.072E+01  3.271E-02
   8.125E-01  5.000E-01  8.045E-01 -2.568E+01  1.041E-02
   8.750E-01  5.000E-01 -2.617E+00 -4.741E+01 -7.286E-02
   9.375E-01  5.000E-01 -3.805E+00 -5.826E+01 -2.503E-01
   1.000E+00  5.000E-01  0.000E+00  0.000E+00 -5.000E-01
   0.000E+00  5.625E-01  0.000E+00  0.000E+00  5.000E-01
   6.250E-02  5.625E-01  5.881E+00  5.567E+01  2.842E-01
   1.250E-01  5.625E-01  7.625E+00  4.877E+01  1.236E-01
   1.875E-01  5.625E-01  5.668E+00  2.848E+01  4.283E-02
   2.500E-01  5.625E-01  3.217E+00  1.254E+01  1.913E-02
   3.125E-01  5.625E-01  1.972E+00  3.544E+00  2.309E-02
   3.750E-01  5.625E-01  2.135E+00 -4.723E-01  3.541E-02
   4.375E-01  5.625E-01  3.296E+00 -1.766E+00  4.754E-02
   5.000E-01  5.625E-01  4.949E+00 -1.825E+00  5.731E-02
   5.625E-01  5.625E-01  6.686E+00 -1.524E+00  6.534E-02
   6.250E-01  5.625E-01  8.172E+00 -1.657E+00  7.285E-02
   6.875E-01  5.625E-01  9.036E+00 -3.509E+00  7.957E-02
   7.500E-01  5.625E-01  8.720E+00 -9.395E+00  8.007E-02
   8.125E-01  5.625E-01  6.568E+00 -2.261E+01  5.663E-02
   8.750E-01  5.625E-01  2.481E+00 -4.416E+01 -2.852E-02
   9.375E-01  5.625E-01 -1.252E+00 -5.828E+01 -2.192E-01
   1.000E+00  5.625E-01  0.000E+00  0.000E+00 -5.000E-01
   0.000E+00  6.250E-01  0.000E+00  0.000E+00  5.000E-01
   6.250E-02  6.250E-01  7.390E+00  5.064E+01  3.192E-01
   1.250E-01  6.250E-01  1.213E+01  4.762E+01  1.790E-01
   1.875E-01  6.250E-01  1.254E+01  3.008E+01  1.034E-01
   2.500E-01  6.250E-01  1.106E+01  1.442E+01  7.759E-02
   3.125E-01  6.250E-01  9.755E+00  4.365E+00  7.894E-02
   3.750E-01  6.250E-01  9.454E+00 -8.729E-01  9.054E-02
   4.375E-01  6.250E-01  1.013E+01 -2.990E+00  1.032E-01
   5.000E-01  6.250E-01  1.135E+01 -3.390E+00  1.133E-01
   5.625E-01  6.250E-01  1.271E+01 -3.048E+00  1.207E-01
   6.250E-01  6.250E-01  1.389E+01 -2.802E+00  1.259E-01
   6.875E-01  6.250E-01  1.454E+01 -3.830E+00  1.290E-01
   7.500E-01  6.250E-01  1.414E+01 -8.254E+00  1.254E-01
   8.125E-01  6.250E-01  1.193E+01 -1.944E+01  9.864E-02
   8.750E-01  6.250E-01  7.334E+00 -3.959E+01  1.027E-02
   9.375E-01  6.250E-01  1.595E+00 -5.578E+01 -1.914E-01
   1.000E+00  6.250E-01  0.000E+00  0.000E+00 -5.000E-01
   0.000E+00  6.875E-01  0.000E+00  0.000E+00  5.000E-01
   6.250E-02  6.875E-01  8.270E+00  4.353E+01  3.539E-01
   1.250E-01  6.875E-01  1.575E+01  4.362E+01  2.368E-01
   1.875E-01  6.875E-01  1.902E+01  2.955E+01  1.693E-01
   2.500E-01  6.875E-01  1.948E+01  1.533E+01  1.426E-01
   3.125E-01  6.875E-01  1.900E+01  5.154E+00  1.403E-01
   3.750E-01  6.875E-01  1.871E+01 -8.450E-01  1.487E-01
   4.375E-01  6.875E-01  1.895E+01 -3.662E+00  1.594E-01
   5.000E-01  6.875E-01  1.958E+01 -4.410E+00  1.683E-01
   5.625E-01  6.875E-01  2.031E+01 -4.062E+00  1.741E-01
   6.250E-01  6.875E-01  2.086E+01 -3.485E+00  1.771E-01
   6.875E-01  6.875E-01  2.092E+01 -3.764E+00  1.768E-01
   7.500E-01  6.875E-01  2.001E+01 -6.786E+00  1.690E-01
   8.125E-01  6.875E-01  1.731E+01 -1.580E+01  1.381E-01
   8.750E-01  6.875E-01  1.196E+01 -3.383E+01  4.551E-02
   9.375E-01  6.875E-01  4.474E+00 -5.095E+01 -1.665E-01
   1.000E+00  6.875E-01  0.000E+00  0.000E+00 -5.000E-01
   0.000E+00  7.500E-01  0.000E+00  0.000E+00  5.000E-01
   6.250E-02  7.500E-01  8.535E+00  3.489E+01  3.874E-01
   1.250E-01  7.500E-01  1.818E+01  3.687E+01  2.945E-01
   1.875E-01  7.500E-01  2.429E+01  2.635E+01  2.380E-01
   2.500E-01  7.500E-01  2.715E+01  1.444E+01  2.126E-01
   3.125E-01  7.500E-01  2.817E+01  5.136E+00  2.070E-01
   3.750E-01  7.500E-01  2.843E+01 -8.244E-01  2.108E-01
   4.375E-01  7.500E-01  2.850E+01 -3.861E+00  2.173E-01
   5.000E-01  7.500E-01  2.853E+01 -4.744E+00  2.226E-01
   5.625E-01  7.500E-01  2.850E+01 -4.325E+00  2.254E-01
   6.250E-01  7.500E-01  2.827E+01 -3.418E+00  2.253E-01
   6.875E-01  7.500E-01  2.761E+01 -2.984E+00  2.214E-01
   7.500E-01  7.500E-01  2.604E+01 -4.642E+00  2.096E-01
   8.125E-01  7.500E-01  2.273E+01 -1.139E+01  1.745E-01
   8.750E-01  7.500E-01  1.658E+01 -2.675E+01  7.740E-02
   9.375E-01  7.500E-01  7.387E+00 -4.382E+01 -1.441E-01
   1.000E+00  7.500E-01  0.000E+00  0.000E+00 -5.000E-01
   0.000E+00  8.125E-01  0.000E+00  0.000E+00  5.000E-01
   6.250E-02  8.125E-01  8.304E+00  2.536E+01  4.182E-01
   1.250E-01  8.125E-01  1.932E+01  2.787E+01  3.494E-01
   1.875E-01  8.125E-01  2.771E+01  2.057E+01  3.053E-01
   2.500E-01  8.125E-01  3.278E+01  1.145E+01  2.830E-01
   3.125E-01  8.125E-01  3.533E+01  3.875E+00  2.748E-01
   3.750E-01  8.125E-01  3.626E+01 -1.175E+00  2.733E-01
   4.375E-01  8.125E-01  3.622E+01 -3.761E+00  2.738E-01
   5.000E-01  8.125E-01  3.566E+01 -4.411E+00  2.738E-01
   5.625E-01  8.125E-01  3.486E+01 -3.801E+00  2.720E-01
   6.250E-01  8.125E-01  3.394E+01 -2.593E+00  2.681E-01
   6.875E-01  8.125E-01  3.278E+01 -1.535E+00  2.605E-01
   7.500E-01  8.125E-01  3.094E+01 -1.913E+00  2.447E-01
   8.125E-01  8.125E-01  2.750E+01 -6.338E+00  2.057E-01
   8.750E-01  8.125E-01  2.106E+01 -1.848E+01  1.043E-01
   9.375E-01  8.125E-01  1.051E+01 -3.437E+01 -1.250E-01
   1.000E+00  8.125E-01  0.000E+00  0.000E+00 -5.000E-01
   0.000E+00  8.750E-01  0.000E+00  0.000E+00  5.000E-01
   6.250E-02  8.750E-01  7.700E+00  1.557E+01  4.444E-01
   1.250E-01  8.750E-01  1.905E+01  1.747E+01  3.968E-01
   1.875E-01  8.750E-01  2.854E+01  1.289E+01  3.642E-01
   2.500E-01  8.750E-01  3.477E+01  6.815E+00  3.448E-01
   3.125E-01  8.750E-01  3.797E+01  1.655E+00  3.338E-01
   3.750E-01  8.750E-01  3.887E+01 -1.708E+00  3.268E-01
   4.375E-01  8.750E-01  3.827E+01 -3.252E+00  3.209E-01
   5.000E-01  8.750E-01  3.696E+01 -3.393E+00  3.151E-01
   5.625E-01  8.750E-01  3.550E+01 -2.612E+00  3.085E-01
   6.250E-01  8.750E-01  3.420E+01 -1.330E+00  3.006E-01
   6.875E-01  8.750E-01  3.312E+01  2.169E-02  2.894E-01
   7.500E-01  8.750E-01  3.193E+01  6.305E-01  2.700E-01
   8.125E-01  8.750E-01  2.968E+01 -1.514E+00  2.272E-01
   8.750E-01  8.750E-01  2.440E+01 -9.757E+00  1.227E-01
   9.375E-01  8.750E-01  1.365E+01 -2.276E+01 -1.117E-01
   1.000E+00  8.750E-01  0.000E+00  0.000E+00 -5.000E-01
   0.000E+00  9.375E-01  0.000E+00  0.000E+00  5.000E-01
   6.250E-02  9.375E-01  6.097E+00  6.310E+00  4.619E-01
   1.250E-01  9.375E-01  1.557E+01  7.028E+00  4.287E-01
   1.875E-01  9.375E-01  2.356E+01  4.853E+00  4.035E-01
   2.500E-01  9.375E-01  2.846E+01  2.026E+00  3.851E-01
   3.125E-01  9.375E-01  3.038E+01 -2.239E-01  3.712E-01
   3.750E-01  9.375E-01  3.012E+01 -1.481E+00  3.594E-01
   4.375E-01  9.375E-01  2.867E+01 -1.858E+00  3.488E-01
   5.000E-01  9.375E-01  2.686E+01 -1.636E+00  3.387E-01
   5.625E-01  9.375E-01  2.528E+01 -1.043E+00  3.288E-01
   6.250E-01  9.375E-01  2.425E+01 -2.185E-01  3.179E-01
   6.875E-01  9.375E-01  2.395E+01  7.368E-01  3.038E-01
   7.500E-01  9.375E-01  2.427E+01  1.529E+00  2.809E-01
   8.125E-01  9.375E-01  2.458E+01  1.193E+00  2.343E-01
   8.750E-01  9.375E-01  2.276E+01 -2.446E+00  1.270E-01
   9.375E-01  9.375E-01  1.482E+01 -9.967E+00 -1.082E-01
   1.000E+00  9.375E-01  0.000E+00  0.000E+00 -5.000E-01
   0.000E+00  1.000E+00  0.000E+00  0.000E+00  5.000E-01
   6.250E-02  1.000E+00  0.000E+00  0.000E+00  4.680E-01
   1.250E-01  1.000E+00  0.000E+00  0.000E+00  4.396E-01
   1.875E-01  1.000E+00  0.000E+00  0.000E+00  4.166E-01
   2.500E-01  1.000E+00  0.000E+00  0.000E+00  3.982E-01
   3.125E-01  1.000E+00  0.000E+00  0.000E+00  3.828E-01
   3.750E-01  1.000E+00  0.000E+00  0.000E+00  3.692E-01
   4.375E-01  1.000E+00  0.000E+00  0.000E+00  3.569E-01
   5.000E-01  1.000E+00  0.000E+00  0.000E+00  3.454E-01
   5.625E-01  1.000E+00  0.000E+00  0.000E+00  3.342E-01
   6.250E-01  1.000E+00  0.000E+00  0.000E+00  3.222E-01
   6.875E-01  1.000E+00  0.000E+00  0.000E+00  3.069E-01
   7.500E-01  1.000E+00  0.000E+00  0.000E+00  2.824E-01
   8.125E-01  1.000E+00  0.000E+00  0.000E+00  2.336E-01
   8.750E-01  1.000E+00  0.000E+00  0.000E+00  1.250E-01
   9.375E-01  1.000E+00  0.000E+00  0.000E+00 -1.096E-01
   1.000E+00  1.000E+00  0.000E+00  0.000E+00 -5.000E-01
 GEOMETRY T=LINE, CS=GRID, F=POINT
 1
 5
 0.0 0.0
 1.0 0.0
 1.0 1.0
 0.0 1.0
 0.0 0.0
