 VARIABLES = "X", "Y", "U", "V", "T"
 ZONE I= 17,J= 17, F=POINT
   0.000E+00  0.000E+00  0.000E+00  0.000E+00  5.000E-01
   6.250E-02  0.000E+00  0.000E+00  0.000E+00  2.668E-01
   1.250E-01  0.000E+00  0.000E+00  0.000E+00  1.194E-01
   1.875E-01  0.000E+00  0.000E+00  0.000E+00  4.865E-02
   2.500E-01  0.000E+00  0.000E+00  0.000E+00  1.858E-02
   3.125E-01  0.000E+00  0.000E+00  0.000E+00  6.435E-03
   3.750E-01  0.000E+00  0.000E+00  0.000E+00  1.314E-03
   4.375E-01  0.000E+00  0.000E+00  0.000E+00 -2.303E-03
   5.000E-01  0.000E+00  0.000E+00  0.000E+00 -8.802E-03
   5.625E-01  0.000E+00  0.000E+00  0.000E+00 -2.403E-02
   6.250E-01  0.000E+00  0.000E+00  0.000E+00 -5.538E-02
   6.875E-01  0.000E+00  0.000E+00  0.000E+00 -1.076E-01
   7.500E-01  0.000E+00  0.000E+00  0.000E+00 -1.778E-01
   8.125E-01  0.000E+00  0.000E+00  0.000E+00 -2.565E-01
   8.750E-01  0.000E+00  0.000E+00  0.000E+00 -3.362E-01
   9.375E-01  0.000E+00  0.000E+00  0.000E+00 -4.169E-01
   1.000E+00  0.000E+00  0.000E+00  0.000E+00 -5.000E-01
   0.000E+00  6.250E-02  0.000E+00  0.000E+00  5.000E-01
   6.250E-02  6.250E-02 -1.143E+01  8.223E+00  2.666E-01
   1.250E-01  6.250E-02 -1.843E+01  2.807E+00  1.187E-01
   1.875E-01  6.250E-02 -2.002E+01 -6.639E-01  4.787E-02
   2.500E-01  6.250E-02 -1.908E+01 -1.576E+00  1.809E-02
   3.125E-01  6.250E-02 -1.775E+01 -1.190E+00  6.149E-03
   3.750E-01  6.250E-02 -1.702E+01 -2.888E-01  1.056E-03
   4.375E-01  6.250E-02 -1.733E+01  8.510E-01 -2.751E-03
   5.000E-01  6.250E-02 -1.892E+01  2.169E+00 -9.687E-03
   5.625E-01  6.250E-02 -2.190E+01  3.512E+00 -2.544E-02
   6.250E-01  6.250E-02 -2.599E+01  4.385E+00 -5.683E-02
   6.875E-01  6.250E-02 -3.022E+01  3.940E+00 -1.078E-01
   7.500E-01  6.250E-02 -3.267E+01  1.320E+00 -1.752E-01
   8.125E-01  6.250E-02 -3.089E+01 -3.612E+00 -2.505E-01
   8.750E-01  6.250E-02 -2.326E+01 -9.219E+00 -3.288E-01
   9.375E-01  6.250E-02 -1.068E+01 -1.106E+01 -4.117E-01
   1.000E+00  6.250E-02  0.000E+00  0.000E+00 -5.000E-01
   0.000E+00  1.250E-01  0.000E+00  0.000E+00  5.000E-01
   6.250E-02  1.250E-01 -1.049E+01  1.843E+01  2.694E-01
   1.250E-01  1.250E-01 -1.906E+01  8.587E+00  1.208E-01
   1.875E-01  1.250E-01 -2.252E+01  6.522E-01  4.871E-02
   2.500E-01  1.250E-01 -2.281E+01 -2.272E+00  1.826E-02
   3.125E-01  1.250E-01 -2.207E+01 -2.064E+00  6.101E-03
   3.750E-01  1.250E-01 -2.155E+01 -4.148E-01  9.224E-04
   4.375E-01  1.250E-01 -2.181E+01  1.905E+00 -2.953E-03
   5.000E-01  1.250E-01 -2.311E+01  4.565E+00 -9.797E-03
   5.625E-01  1.250E-01 -2.544E+01  7.069E+00 -2.467E-02
   6.250E-01  1.250E-01 -2.845E+01  8.319E+00 -5.318E-02
   6.875E-01  1.250E-01 -3.123E+01  6.672E+00 -9.840E-02
   7.500E-01  1.250E-01 -3.223E+01  6.767E-01 -1.580E-01
   8.125E-01  1.250E-01 -2.956E+01 -9.402E+00 -2.270E-01
   8.750E-01  1.250E-01 -2.201E+01 -2.022E+01 -3.052E-01
   9.375E-01  1.250E-01 -1.011E+01 -2.326E+01 -3.970E-01
   1.000E+00  1.250E-01  0.000E+00  0.000E+00 -5.000E-01
   0.000E+00  1.875E-01  0.000E+00  0.000E+00  5.000E-01
   6.250E-02  1.875E-01 -7.928E+00  2.728E+01  2.768E-01
   1.250E-01  1.875E-01 -1.589E+01  1.483E+01  1.283E-01
   1.875E-01  1.875E-01 -1.996E+01  3.085E+00  5.321E-02
   2.500E-01  1.875E-01 -2.108E+01 -2.021E+00  2.030E-02
   3.125E-01  1.875E-01 -2.089E+01 -2.452E+00  6.916E-03
   3.750E-01  1.875E-01 -2.047E+01 -5.510E-01  1.404E-03
   4.375E-01  1.875E-01 -2.037E+01  2.410E+00 -2.108E-03
   5.000E-01  1.875E-01 -2.074E+01  5.793E+00 -7.536E-03
   5.625E-01  1.875E-01 -2.156E+01  8.851E+00 -1.897E-02
   6.250E-01  1.875E-01 -2.262E+01  1.018E+01 -4.097E-02
   6.875E-01  1.875E-01 -2.357E+01  7.723E+00 -7.670E-02
   7.500E-01  1.875E-01 -2.373E+01 -3.449E-01 -1.265E-01
   8.125E-01  1.875E-01 -2.200E+01 -1.384E+01 -1.906E-01
   8.750E-01  1.875E-01 -1.696E+01 -2.868E+01 -2.727E-01
   9.375E-01  1.875E-01 -8.136E+00 -3.306E+01 -3.778E-01
   1.000E+00  1.875E-01  0.000E+00  0.000E+00 -5.000E-01
   0.000E+00  2.500E-01  0.000E+00  0.000E+00  5.000E-01
   6.250E-02  2.500E-01 -5.649E+00  3.433E+01  2.856E-01
   1.250E-01  2.500E-01 -1.246E+01  2.062E+01  1.378E-01
   1.875E-01  2.500E-01 -1.644E+01  5.839E+00  5.935E-02
   2.500E-01  2.500E-01 -1.786E+01 -1.342E+00  2.330E-02
   3.125E-01  2.500E-01 -1.787E+01 -2.672E+00  8.206E-03
   3.750E-01  2.500E-01 -1.736E+01 -9.327E-01  2.158E-03
   4.375E-01  2.500E-01 -1.680E+01  2.175E+00 -9.618E-04
   5.000E-01  2.500E-01 -1.629E+01  5.755E+00 -4.768E-03
   5.625E-01  2.500E-01 -1.582E+01  8.951E+00 -1.251E-02
   6.250E-01  2.500E-01 -1.539E+01  1.034E+01 -2.791E-02
   6.875E-01  2.500E-01 -1.509E+01  7.776E+00 -5.460E-02
   7.500E-01  2.500E-01 -1.495E+01 -8.983E-01 -9.580E-02
   8.125E-01  2.500E-01 -1.443E+01 -1.617E+01 -1.562E-01
   8.750E-01  2.500E-01 -1.195E+01 -3.408E+01 -2.427E-01
   9.375E-01  2.500E-01 -6.194E+00 -4.022E+01 -3.603E-01
   1.000E+00  2.500E-01  0.000E+00  0.000E+00 -5.000E-01
   0.000E+00  3.125E-01  0.000E+00  0.000E+00  5.000E-01
   6.250E-02  3.125E-01 -3.879E+00  3.974E+01  2.944E-01
   1.250E-01  3.125E-01 -9.468E+00  2.563E+01  1.476E-01
   1.875E-01  3.125E-01 -1.306E+01  8.483E+00  6.589E-02
   2.500E-01  3.125E-01 -1.444E+01 -5.967E-01  2.664E-02
   3.125E-01  3.125E-01 -1.442E+01 -2.944E+00  9.678E-03
   3.750E-01  3.125E-01 -1.375E+01 -1.619E+00  2.925E-03
   4.375E-01  3.125E-01 -1.278E+01  1.333E+00 -2.352E-05
   5.000E-01  3.125E-01 -1.166E+01  4.815E+00 -2.644E-03
   5.625E-01  3.125E-01 -1.040E+01  7.952E+00 -7.595E-03
   6.250E-01  3.125E-01 -9.117E+00  9.450E+00 -1.797E-02
   6.875E-01  3.125E-01 -8.130E+00  7.283E+00 -3.769E-02
   7.500E-01  3.125E-01 -7.841E+00 -1.003E+00 -7.203E-02
   8.125E-01  3.125E-01 -8.125E+00 -1.684E+01 -1.291E-01
   8.750E-01  3.125E-01 -7.560E+00 -3.692E+01 -2.185E-01
   9.375E-01  3.125E-01 -4.403E+00 -4.501E+01 -3.460E-01
   1.000E+00  3.125E-01  0.000E+00  0.000E+00 -5.000E-01
   0.000E+00  3.750E-01  0.000E+00  0.000E+00  5.000E-01
   6.250E-02  3.750E-01 -2.494E+00  4.379E+01  3.025E-01
   1.250E-01  3.750E-01 -6.912E+00  2.979E+01  1.569E-01
   1.875E-01  3.750E-01 -9.977E+00  1.081E+01  7.236E-02
   2.500E-01  3.750E-01 -1.116E+01  2.476E-02  3.009E-02
   3.125E-01  3.750E-01 -1.102E+01 -3.363E+00  1.126E-02
   3.750E-01  3.750E-01 -1.015E+01 -2.572E+00  3.669E-03
   4.375E-01  3.750E-01 -8.903E+00  9.344E-02  6.413E-04
   5.000E-01  3.750E-01 -7.436E+00  3.374E+00 -1.308E-03
   5.625E-01  3.750E-01 -5.806E+00  6.404E+00 -4.489E-03
   6.250E-01  3.750E-01 -4.165E+00  8.061E+00 -1.152E-02
   6.875E-01  3.750E-01 -2.889E+00  6.500E+00 -2.634E-02
   7.500E-01  3.750E-01 -2.481E+00 -9.027E-01 -5.542E-02
   8.125E-01  3.750E-01 -3.109E+00 -1.645E+01 -1.091E-01
   8.750E-01  3.750E-01 -3.817E+00 -3.780E+01 -1.998E-01
   9.375E-01  3.750E-01 -2.781E+00 -4.778E+01 -3.344E-01
   1.000E+00  3.750E-01  0.000E+00  0.000E+00 -5.000E-01
   0.000E+00  4.375E-01  0.000E+00  0.000E+00  5.000E-01
   6.250E-02  4.375E-01 -1.290E+00  4.666E+01  3.099E-01
   1.250E-01  4.375E-01 -4.583E+00  3.311E+01  1.658E-01
   1.875E-01  4.375E-01 -7.096E+00  1.273E+01  7.883E-02
   2.500E-01  4.375E-01 -8.042E+00  4.445E-01  3.377E-02
   3.125E-01  4.375E-01 -7.740E+00 -3.959E+00  1.306E-02
   3.750E-01  4.375E-01 -6.686E+00 -3.734E+00  4.493E-03
   4.375E-01  4.375E-01 -5.246E+00 -1.378E+00  1.160E-03
   5.000E-01  4.375E-01 -3.607E+00  1.717E+00 -5.174E-04
   5.625E-01  4.375E-01 -1.872E+00  4.681E+00 -2.703E-03
   6.250E-01  4.375E-01 -1.884E-01  6.533E+00 -7.722E-03
   6.875E-01  4.375E-01  1.123E+00  5.598E+00 -1.942E-02
   7.500E-01  4.375E-01  1.592E+00 -7.831E-01 -4.475E-02
   8.125E-01  4.375E-01  8.893E-01 -1.550E+01 -9.529E-02
   8.750E-01  4.375E-01 -5.960E-01 -3.724E+01 -1.856E-01
   9.375E-01  4.375E-01 -1.315E+00 -4.883E+01 -3.250E-01
   1.000E+00  4.375E-01  0.000E+00  0.000E+00 -5.000E-01
   0.000E+00  5.000E-01  0.000E+00  0.000E+00  5.000E-01
   6.250E-02  5.000E-01 -4.428E-02  4.838E+01  3.171E-01
   1.250E-01  5.000E-01 -2.171E+00  3.560E+01  1.748E-01
   1.875E-01  5.000E-01 -4.177E+00  1.427E+01  8.595E-02
   2.500E-01  5.000E-01 -4.943E+00  6.690E-01  3.824E-02
   3.125E-01  5.000E-01 -4.515E+00 -4.720E+00  1.548E-02
   3.750E-01  5.000E-01 -3.303E+00 -5.066E+00  5.657E-03
   4.375E-01  5.000E-01 -1.717E+00 -2.985E+00  1.736E-03
   5.000E-01  5.000E-01  6.914E-06  2.220E-05 -1.894E-09
   5.625E-01  5.000E-01  1.717E+00  2.985E+00 -1.736E-03
   6.250E-01  5.000E-01  3.303E+00  5.066E+00 -5.657E-03
   6.875E-01  5.000E-01  4.515E+00  4.720E+00 -1.548E-02
   7.500E-01  5.000E-01  4.943E+00 -6.690E-01 -3.824E-02
   8.125E-01  5.000E-01  4.177E+00 -1.427E+01 -8.595E-02
   8.750E-01  5.000E-01  2.171E+00 -3.560E+01 -1.748E-01
   9.375E-01  5.000E-01  4.428E-02 -4.838E+01 -3.171E-01
   1.000E+00  5.000E-01  0.000E+00  0.000E+00 -5.000E-01
   0.000E+00  5.625E-01  0.000E+00  0.000E+00  5.000E-01
   6.250E-02  5.625E-01  1.314E+00  4.883E+01  3.250E-01
   1.250E-01  5.625E-01  5.960E-01  3.724E+01  1.856E-01
   1.875E-01  5.625E-01 -8.893E-01  1.550E+01  9.529E-02
   2.500E-01  5.625E-01 -1.592E+00  7.831E-01  4.475E-02
   3.125E-01  5.625E-01 -1.123E+00 -5.598E+00  1.942E-02
   3.750E-01  5.625E-01  1.885E-01 -6.533E+00  7.722E-03
   4.375E-01  5.625E-01  1.872E+00 -4.681E+00  2.703E-03
   5.000E-01  5.625E-01  3.607E+00 -1.717E+00  5.174E-04
   5.625E-01  5.625E-01  5.246E+00  1.378E+00 -1.160E-03
   6.250E-01  5.625E-01  6.686E+00  3.734E+00 -4.493E-03
   6.875E-01  5.625E-01  7.740E+00  3.959E+00 -1.306E-02
   7.500E-01  5.625E-01  8.042E+00 -4.444E-01 -3.377E-02
   8.125E-01  5.625E-01  7.096E+00 -1.273E+01 -7.883E-02
   8.750E-01  5.625E-01  4.583E+00 -3.311E+01 -1.658E-01
   9.375E-01  5.625E-01  1.290E+00 -4.666E+01 -3.099E-01
   1.000E+00  5.625E-01  0.000E+00  0.000E+00 -5.000E-01
   0.000E+00  6.250E-01  0.000E+00  0.000E+00  5.000E-01
   6.250E-02  6.250E-01  2.781E+00  4.778E+01  3.344E-01
   1.250E-01  6.250E-01  3.817E+00  3.780E+01  1.998E-01
   1.875E-01  6.250E-01  3.109E+00  1.645E+01  1.091E-01
   2.500E-01  6.250E-01  2.481E+00  9.027E-01  5.542E-02
   3.125E-01  6.250E-01  2.889E+00 -6.500E+00  2.634E-02
   3.750E-01  6.250E-01  4.165E+00 -8.061E+00  1.152E-02
   4.375E-01  6.250E-01  5.806E+00 -6.404E+00  4.489E-03
   5.000E-01  6.250E-01  7.436E+00 -3.374E+00  1.308E-03
   5.625E-01  6.250E-01  8.903E+00 -9.340E-02 -6.413E-04
   6.250E-01  6.250E-01  1.015E+01  2.572E+00 -3.669E-03
   6.875E-01  6.250E-01  1.102E+01  3.363E+00 -1.126E-02
   7.500E-01  6.250E-01  1.116E+01 -2.472E-02 -3.009E-02
   8.125E-01  6.250E-01  9.977E+00 -1.081E+01 -7.236E-02
   8.750E-01  6.250E-01  6.912E+00 -2.979E+01 -1.569E-01
   9.375E-01  6.250E-01  2.494E+00 -4.379E+01 -3.025E-01
   1.000E+00  6.250E-01  0.000E+00  0.000E+00 -5.000E-01
   0.000E+00  6.875E-01  0.000E+00  0.000E+00  5.000E-01
   6.250E-02  6.875E-01  4.403E+00  4.501E+01  3.460E-01
   1.250E-01  6.875E-01  7.560E+00  3.692E+01  2.185E-01
   1.875E-01  6.875E-01  8.125E+00  1.684E+01  1.291E-01
   2.500E-01  6.875E-01  7.841E+00  1.003E+00  7.203E-02
   3.125E-01  6.875E-01  8.130E+00 -7.283E+00  3.769E-02
   3.750E-01  6.875E-01  9.117E+00 -9.450E+00  1.797E-02
   4.375E-01  6.875E-01  1.040E+01 -7.952E+00  7.595E-03
   5.000E-01  6.875E-01  1.166E+01 -4.814E+00  2.644E-03
   5.625E-01  6.875E-01  1.278E+01 -1.333E+00  2.351E-05
   6.250E-01  6.875E-01  1.375E+01  1.620E+00 -2.925E-03
   6.875E-01  6.875E-01  1.442E+01  2.944E+00 -9.678E-03
   7.500E-01  6.875E-01  1.444E+01  5.967E-01 -2.664E-02
   8.125E-01  6.875E-01  1.306E+01 -8.483E+00 -6.589E-02
   8.750E-01  6.875E-01  9.468E+00 -2.563E+01 -1.476E-01
   9.375E-01  6.875E-01  3.879E+00 -3.974E+01 -2.944E-01
   1.000E+00  6.875E-01  0.000E+00  0.000E+00 -5.000E-01
   0.000E+00  7.500E-01  0.000E+00  0.000E+00  5.000E-01
   6.250E-02  7.500E-01  6.194E+00  4.022E+01  3.603E-01
   1.250E-01  7.500E-01  1.195E+01  3.408E+01  2.427E-01
   1.875E-01  7.500E-01  1.443E+01  1.617E+01  1.562E-01
   2.500E-01  7.500E-01  1.495E+01  8.983E-01  9.580E-02
   3.125E-01  7.500E-01  1.509E+01 -7.776E+00  5.460E-02
   3.750E-01  7.500E-01  1.539E+01 -1.034E+01  2.791E-02
   4.375E-01  7.500E-01  1.582E+01 -8.951E+00  1.251E-02
   5.000E-01  7.500E-01  1.629E+01 -5.755E+00  4.768E-03
   5.625E-01  7.500E-01  1.680E+01 -2.175E+00  9.618E-04
   6.250E-01  7.500E-01  1.736E+01  9.327E-01 -2.158E-03
   6.875E-01  7.500E-01  1.787E+01  2.672E+00 -8.206E-03
   7.500E-01  7.500E-01  1.786E+01  1.342E+00 -2.330E-02
   8.125E-01  7.500E-01  1.644E+01 -5.838E+00 -5.935E-02
   8.750E-01  7.500E-01  1.246E+01 -2.062E+01 -1.378E-01
   9.375E-01  7.500E-01  5.649E+00 -3.433E+01 -2.856E-01
   1.000E+00  7.500E-01  0.000E+00  0.000E+00 -5.000E-01
   0.000E+00  8.125E-01  0.000E+00  0.000E+00  5.000E-01
   6.250E-02  8.125E-01  8.136E+00  3.306E+01  3.778E-01
   1.250E-01  8.125E-01  1.696E+01  2.868E+01  2.727E-01
   1.875E-01  8.125E-01  2.200E+01  1.384E+01  1.906E-01
   2.500E-01  8.125E-01  2.373E+01  3.449E-01  1.265E-01
   3.125E-01  8.125E-01  2.357E+01 -7.723E+00  7.670E-02
   3.750E-01  8.125E-01  2.262E+01 -1.018E+01  4.097E-02
   4.375E-01  8.125E-01  2.156E+01 -8.851E+00  1.897E-02
   5.000E-01  8.125E-01  2.074E+01 -5.793E+00  7.536E-03
   5.625E-01  8.125E-01  2.037E+01 -2.410E+00  2.108E-03
   6.250E-01  8.125E-01  2.047E+01  5.510E-01 -1.404E-03
   6.875E-01  8.125E-01  2.089E+01  2.452E+00 -6.916E-03
   7.500E-01  8.125E-01  2.108E+01  2.021E+00 -2.030E-02
   8.125E-01  8.125E-01  1.996E+01 -3.085E+00 -5.321E-02
   8.750E-01  8.125E-01  1.589E+01 -1.483E+01 -1.283E-01
   9.375E-01  8.125E-01  7.928E+00 -2.728E+01 -2.768E-01
   1.000E+00  8.125E-01  0.000E+00  0.000E+00 -5.000E-01
   0.000E+00  8.750E-01  0.000E+00  0.000E+00  5.000E-01
   6.250E-02  8.750E-01  1.011E+01  2.326E+01  3.970E-01
   1.250E-01  8.750E-01  2.201E+01  2.022E+01  3.052E-01
   1.875E-01  8.750E-01  2.956E+01  9.402E+00  2.270E-01
   2.500E-01  8.750E-01  3.223E+01 -6.767E-01  1.580E-01
   3.125E-01  8.750E-01  3.123E+01 -6.672E+00  9.840E-02
   3.750E-01  8.750E-01  2.845E+01 -8.319E+00  5.318E-02
   4.375E-01  8.750E-01  2.544E+01 -7.069E+00  2.467E-02
   5.000E-01  8.750E-01  2.311E+01 -4.565E+00  9.797E-03
   5.625E-01  8.750E-01  2.181E+01 -1.905E+00  2.953E-03
   6.250E-01  8.750E-01  2.155E+01  4.148E-01 -9.224E-04
   6.875E-01  8.750E-01  2.207E+01  2.064E+00 -6.101E-03
   7.500E-01  8.750E-01  2.281E+01  2.272E+00 -1.826E-02
   8.125E-01  8.750E-01  2.252E+01 -6.522E-01 -4.871E-02
   8.750E-01  8.750E-01  1.906E+01 -8.587E+00 -1.208E-01
   9.375E-01  8.750E-01  1.049E+01 -1.843E+01 -2.694E-01
   1.000E+00  8.750E-01  0.000E+00  0.000E+00 -5.000E-01
   0.000E+00  9.375E-01  0.000E+00  0.000E+00  5.000E-01
   6.250E-02  9.375E-01  1.068E+01  1.106E+01  4.117E-01
   1.250E-01  9.375E-01  2.326E+01  9.219E+00  3.288E-01
   1.875E-01  9.375E-01  3.089E+01  3.612E+00  2.505E-01
   2.500E-01  9.375E-01  3.267E+01 -1.320E+00  1.752E-01
   3.125E-01  9.375E-01  3.022E+01 -3.940E+00  1.078E-01
   3.750E-01  9.375E-01  2.599E+01 -4.385E+00  5.683E-02
   4.375E-01  9.375E-01  2.190E+01 -3.512E+00  2.544E-02
   5.000E-01  9.375E-01  1.892E+01 -2.169E+00  9.687E-03
   5.625E-01  9.375E-01  1.733E+01 -8.510E-01  2.751E-03
   6.250E-01  9.375E-01  1.702E+01  2.888E-01 -1.056E-03
   6.875E-01  9.375E-01  1.775E+01  1.190E+00 -6.149E-03
   7.500E-01  9.375E-01  1.908E+01  1.576E+00 -1.809E-02
   8.125E-01  9.375E-01  2.002E+01  6.639E-01 -4.787E-02
   8.750E-01  9.375E-01  1.843E+01 -2.807E+00 -1.187E-01
   9.375E-01  9.375E-01  1.143E+01 -8.223E+00 -2.666E-01
   1.000E+00  9.375E-01  0.000E+00  0.000E+00 -5.000E-01
   0.000E+00  1.000E+00  0.000E+00  0.000E+00  5.000E-01
   6.250E-02  1.000E+00  0.000E+00  0.000E+00  4.169E-01
   1.250E-01  1.000E+00  0.000E+00  0.000E+00  3.362E-01
   1.875E-01  1.000E+00  0.000E+00  0.000E+00  2.565E-01
   2.500E-01  1.000E+00  0.000E+00  0.000E+00  1.778E-01
   3.125E-01  1.000E+00  0.000E+00  0.000E+00  1.076E-01
   3.750E-01  1.000E+00  0.000E+00  0.000E+00  5.538E-02
   4.375E-01  1.000E+00  0.000E+00  0.000E+00  2.403E-02
   5.000E-01  1.000E+00  0.000E+00  0.000E+00  8.802E-03
   5.625E-01  1.000E+00  0.000E+00  0.000E+00  2.303E-03
   6.250E-01  1.000E+00  0.000E+00  0.000E+00 -1.314E-03
   6.875E-01  1.000E+00  0.000E+00  0.000E+00 -6.435E-03
   7.500E-01  1.000E+00  0.000E+00  0.000E+00 -1.858E-02
   8.125E-01  1.000E+00  0.000E+00  0.000E+00 -4.865E-02
   8.750E-01  1.000E+00  0.000E+00  0.000E+00 -1.194E-01
   9.375E-01  1.000E+00  0.000E+00  0.000E+00 -2.668E-01
   1.000E+00  1.000E+00  0.000E+00  0.000E+00 -5.000E-01
 GEOMETRY T=LINE, CS=GRID, F=POINT
 1
 5
 0.0 0.0
 1.0 0.0
 1.0 1.0
 0.0 1.0
 0.0 0.0
