 VARIABLES = "X", "Y", "U", "V", "T"
 ZONE I= 17,J= 17, F=POINT
   0.000E+00  0.000E+00  0.000E+00  0.000E+00  5.000E-01
   6.250E-02  0.000E+00  0.000E+00  0.000E+00  1.612E-01
   1.250E-01  0.000E+00  0.000E+00  0.000E+00 -5.938E-02
   1.875E-01  0.000E+00  0.000E+00  0.000E+00 -1.770E-01
   2.500E-01  0.000E+00  0.000E+00  0.000E+00 -2.403E-01
   3.125E-01  0.000E+00  0.000E+00  0.000E+00 -2.784E-01
   3.750E-01  0.000E+00  0.000E+00  0.000E+00 -3.043E-01
   4.375E-01  0.000E+00  0.000E+00  0.000E+00 -3.237E-01
   5.000E-01  0.000E+00  0.000E+00  0.000E+00 -3.397E-01
   5.625E-01  0.000E+00  0.000E+00  0.000E+00 -3.539E-01
   6.250E-01  0.000E+00  0.000E+00  0.000E+00 -3.676E-01
   6.875E-01  0.000E+00  0.000E+00  0.000E+00 -3.817E-01
   7.500E-01  0.000E+00  0.000E+00  0.000E+00 -3.977E-01
   8.125E-01  0.000E+00  0.000E+00  0.000E+00 -4.168E-01
   8.750E-01  0.000E+00  0.000E+00  0.000E+00 -4.403E-01
   9.375E-01  0.000E+00  0.000E+00  0.000E+00 -4.686E-01
   1.000E+00  0.000E+00  0.000E+00  0.000E+00 -5.000E-01
   0.000E+00  6.250E-02  0.000E+00  0.000E+00  5.000E-01
   6.250E-02  6.250E-02 -1.432E+01  9.585E+00  1.551E-01
   1.250E-01  6.250E-02 -2.331E+01  3.406E+00 -6.855E-02
   1.875E-01  6.250E-02 -2.739E+01  5.206E-01 -1.849E-01
   2.500E-01  6.250E-02 -2.990E+01  4.712E-01 -2.447E-01
   3.125E-01  6.250E-02 -3.238E+01  1.323E+00 -2.789E-01
   3.750E-01  6.250E-02 -3.519E+01  2.164E+00 -3.013E-01
   4.375E-01  6.250E-02 -3.816E+01  2.685E+00 -3.177E-01
   5.000E-01  6.250E-02 -4.090E+01  2.727E+00 -3.309E-01
   5.625E-01  6.250E-02 -4.282E+01  2.116E+00 -3.426E-01
   6.250E-01  6.250E-02 -4.319E+01  6.585E-01 -3.540E-01
   6.875E-01  6.250E-02 -4.119E+01 -1.726E+00 -3.664E-01
   7.500E-01  6.250E-02 -3.621E+01 -4.731E+00 -3.817E-01
   8.125E-01  6.250E-02 -2.800E+01 -7.586E+00 -4.020E-01
   8.750E-01  6.250E-02 -1.717E+01 -8.960E+00 -4.290E-01
   9.375E-01  6.250E-02 -6.117E+00 -6.917E+00 -4.627E-01
   1.000E+00  6.250E-02  0.000E+00  0.000E+00 -5.000E-01
   0.000E+00  1.250E-01  0.000E+00  0.000E+00  5.000E-01
   6.250E-02  1.250E-01 -1.445E+01  2.331E+01  1.486E-01
   1.250E-01  1.250E-01 -2.731E+01  1.307E+01 -7.795E-02
   1.875E-01  1.250E-01 -3.582E+01  6.587E+00 -1.907E-01
   2.500E-01  1.250E-01 -4.177E+01  4.983E+00 -2.429E-01
   3.125E-01  1.250E-01 -4.640E+01  5.289E+00 -2.688E-01
   3.750E-01  1.250E-01 -5.022E+01  5.787E+00 -2.834E-01
   4.375E-01  1.250E-01 -5.325E+01  5.716E+00 -2.926E-01
   5.000E-01  1.250E-01 -5.522E+01  4.655E+00 -2.991E-01
   5.625E-01  1.250E-01 -5.572E+01  2.283E+00 -3.046E-01
   6.250E-01  1.250E-01 -5.425E+01 -1.630E+00 -3.107E-01
   6.875E-01  1.250E-01 -5.038E+01 -6.973E+00 -3.197E-01
   7.500E-01  1.250E-01 -4.371E+01 -1.319E+01 -3.348E-01
   8.125E-01  1.250E-01 -3.392E+01 -1.904E+01 -3.595E-01
   8.750E-01  1.250E-01 -2.130E+01 -2.188E+01 -3.967E-01
   9.375E-01  1.250E-01 -7.992E+00 -1.717E+01 -4.460E-01
   1.000E+00  1.250E-01  0.000E+00  0.000E+00 -5.000E-01
   0.000E+00  1.875E-01  0.000E+00  0.000E+00  5.000E-01
   6.250E-02  1.875E-01 -1.219E+01  3.689E+01  1.527E-01
   1.250E-01  1.875E-01 -2.536E+01  2.478E+01 -7.134E-02
   1.875E-01  1.875E-01 -3.512E+01  1.499E+01 -1.787E-01
   2.500E-01  1.875E-01 -4.200E+01  1.105E+01 -2.229E-01
   3.125E-01  1.875E-01 -4.685E+01  9.776E+00 -2.400E-01
   3.750E-01  1.875E-01 -5.019E+01  9.006E+00 -2.460E-01
   4.375E-01  1.875E-01 -5.225E+01  7.680E+00 -2.468E-01
   5.000E-01  1.875E-01 -5.309E+01  5.197E+00 -2.454E-01
   5.625E-01  1.875E-01 -5.263E+01  1.150E+00 -2.439E-01
   6.250E-01  1.875E-01 -5.076E+01 -4.682E+00 -2.445E-01
   6.875E-01  1.875E-01 -4.730E+01 -1.227E+01 -2.508E-01
   7.500E-01  1.875E-01 -4.175E+01 -2.119E+01 -2.671E-01
   8.125E-01  1.875E-01 -3.347E+01 -2.999E+01 -2.987E-01
   8.750E-01  1.875E-01 -2.208E+01 -3.488E+01 -3.502E-01
   9.375E-01  1.875E-01 -8.904E+00 -2.822E+01 -4.215E-01
   1.000E+00  1.875E-01  0.000E+00  0.000E+00 -5.000E-01
   0.000E+00  2.500E-01  0.000E+00  0.000E+00  5.000E-01
   6.250E-02  2.500E-01 -9.274E+00  4.867E+01  1.645E-01
   1.250E-01  2.500E-01 -2.105E+01  3.601E+01 -5.334E-02
   1.875E-01  2.500E-01 -3.013E+01  2.323E+01 -1.549E-01
   2.500E-01  2.500E-01 -3.628E+01  1.671E+01 -1.920E-01
   3.125E-01  2.500E-01 -4.017E+01  1.348E+01 -2.013E-01
   3.750E-01  2.500E-01 -4.238E+01  1.119E+01 -1.994E-01
   4.375E-01  2.500E-01 -4.332E+01  8.616E+00 -1.926E-01
   5.000E-01  2.500E-01 -4.331E+01  5.039E+00 -1.841E-01
   5.625E-01  2.500E-01 -4.256E+01 -4.189E-02 -1.765E-01
   6.250E-01  2.500E-01 -4.117E+01 -6.966E+00 -1.726E-01
   6.875E-01  2.500E-01 -3.906E+01 -1.598E+01 -1.763E-01
   7.500E-01  2.500E-01 -3.568E+01 -2.702E+01 -1.932E-01
   8.125E-01  2.500E-01 -3.012E+01 -3.872E+01 -2.310E-01
   8.750E-01  2.500E-01 -2.130E+01 -4.645E+01 -2.972E-01
   9.375E-01  2.500E-01 -9.457E+00 -3.925E+01 -3.927E-01
   1.000E+00  2.500E-01  0.000E+00  0.000E+00 -5.000E-01
   0.000E+00  3.125E-01  0.000E+00  0.000E+00  5.000E-01
   6.250E-02  3.125E-01 -6.048E+00  5.795E+01  1.819E-01
   1.250E-01  3.125E-01 -1.573E+01  4.564E+01 -2.820E-02
   1.875E-01  3.125E-01 -2.341E+01  3.021E+01 -1.252E-01
   2.500E-01  3.125E-01 -2.827E+01  2.109E+01 -1.571E-01
   3.125E-01  3.125E-01 -3.084E+01  1.587E+01 -1.606E-01
   3.750E-01  3.125E-01 -3.179E+01  1.215E+01 -1.527E-01
   4.375E-01  3.125E-01 -3.166E+01  8.609E+00 -1.404E-01
   5.000E-01  3.125E-01 -3.092E+01  4.433E+00 -1.268E-01
   5.625E-01  3.125E-01 -2.996E+01 -9.808E-01 -1.145E-01
   6.250E-01  3.125E-01 -2.906E+01 -8.179E+00 -1.063E-01
   6.875E-01  3.125E-01 -2.820E+01 -1.776E+01 -1.064E-01
   7.500E-01  3.125E-01 -2.699E+01 -3.013E+01 -1.216E-01
   8.125E-01  3.125E-01 -2.445E+01 -4.438E+01 -1.625E-01
   8.750E-01  3.125E-01 -1.895E+01 -5.554E+01 -2.413E-01
   9.375E-01  3.125E-01 -9.442E+00 -4.952E+01 -3.612E-01
   1.000E+00  3.125E-01  0.000E+00  0.000E+00 -5.000E-01
   0.000E+00  3.750E-01  0.000E+00  0.000E+00  5.000E-01
   6.250E-02  3.750E-01 -2.526E+00  6.440E+01  2.036E-01
   1.250E-01  3.750E-01 -9.849E+00  5.336E+01  2.043E-03
   1.875E-01  3.750E-01 -1.609E+01  3.576E+01 -9.202E-02
   2.500E-01  3.750E-01 -1.979E+01  2.415E+01 -1.213E-01
   3.125E-01  3.750E-01 -2.129E+01  1.700E+01 -1.215E-01
   3.750E-01  3.750E-01 -2.125E+01  1.201E+01 -1.101E-01
   4.375E-01  3.750E-01 -2.028E+01  7.742E+00 -9.455E-02
   5.000E-01  3.750E-01 -1.892E+01  3.340E+00 -7.792E-02
   5.625E-01  3.750E-01 -1.764E+01 -1.902E+00 -6.243E-02
   6.250E-01  3.750E-01 -1.681E+01 -8.731E+00 -5.038E-02
   6.875E-01  3.750E-01 -1.658E+01 -1.805E+01 -4.573E-02
   7.500E-01  3.750E-01 -1.688E+01 -3.077E+01 -5.660E-02
   8.125E-01  3.750E-01 -1.696E+01 -4.676E+01 -9.703E-02
   8.750E-01  3.750E-01 -1.498E+01 -6.145E+01 -1.847E-01
   9.375E-01  3.750E-01 -8.643E+00 -5.820E+01 -3.278E-01
   1.000E+00  3.750E-01  0.000E+00  0.000E+00 -5.000E-01
   0.000E+00  4.375E-01  0.000E+00  0.000E+00  5.000E-01
   6.250E-02  4.375E-01  1.133E+00  6.779E+01  2.296E-01
   1.250E-01  4.375E-01 -3.420E+00  5.921E+01  3.743E-02
   1.875E-01  4.375E-01 -8.433E+00  4.016E+01 -5.576E-02
   2.500E-01  4.375E-01 -1.142E+01  2.629E+01 -8.493E-02
   3.125E-01  4.375E-01 -1.236E+01  1.732E+01 -8.420E-02
   3.750E-01  4.375E-01 -1.183E+01  1.114E+01 -7.156E-02
   4.375E-01  4.375E-01 -1.043E+01  6.275E+00 -5.471E-02
   5.000E-01  4.375E-01 -8.695E+00  1.794E+00 -3.682E-02
   5.625E-01  4.375E-01 -7.090E+00 -3.092E+00 -1.951E-02
   6.250E-01  4.375E-01 -5.989E+00 -9.238E+00 -4.452E-03
   6.875E-01  4.375E-01 -5.741E+00 -1.769E+01  4.753E-03
   7.500E-01  4.375E-01 -6.625E+00 -2.976E+01 -5.995E-04
   8.125E-01  4.375E-01 -8.443E+00 -4.627E+01 -3.741E-02
   8.750E-01  4.375E-01 -9.625E+00 -6.386E+01 -1.300E-01
   9.375E-01  4.375E-01 -6.964E+00 -6.450E+01 -2.935E-01
   1.000E+00  4.375E-01  0.000E+00  0.000E+00 -5.000E-01
   0.000E+00  5.000E-01  0.000E+00  0.000E+00  5.000E-01
   6.250E-02  5.000E-01  4.422E+00  6.782E+01  2.600E-01
   1.250E-01  5.000E-01  3.292E+00  6.293E+01  7.995E-02
   1.875E-01  5.000E-01 -2.317E-01  4.376E+01 -1.366E-02
   2.500E-01  5.000E-01 -2.819E+00  2.807E+01 -4.575E-02
   3.125E-01  5.000E-01 -3.698E+00  1.741E+01 -4.672E-02
   3.750E-01  5.000E-01 -3.183E+00  1.008E+01 -3.470E-02
   4.375E-01  5.000E-01 -1.794E+00  4.609E+00 -1.803E-02
   5.000E-01  5.000E-01 -1.619E-05 -2.988E-06 -2.164E-07
   5.625E-01  5.000E-01  1.794E+00 -4.609E+00  1.803E-02
   6.250E-01  5.000E-01  3.183E+00 -1.008E+01  3.470E-02
   6.875E-01  5.000E-01  3.698E+00 -1.741E+01  4.672E-02
   7.500E-01  5.000E-01  2.819E+00 -2.807E+01  4.575E-02
   8.125E-01  5.000E-01  2.317E-01 -4.376E+01  1.366E-02
   8.750E-01  5.000E-01 -3.292E+00 -6.293E+01 -7.995E-02
   9.375E-01  5.000E-01 -4.422E+00 -6.782E+01 -2.600E-01
   1.000E+00  5.000E-01  0.000E+00  0.000E+00 -5.000E-01
   0.000E+00  5.625E-01  0.000E+00  0.000E+00  5.000E-01
   6.250E-02  5.625E-01  6.964E+00  6.450E+01  2.935E-01
   1.250E-01  5.625E-01  9.625E+00  6.386E+01  1.300E-01
   1.875E-01  5.625E-01  8.443E+00  4.627E+01  3.741E-02
   2.500E-01  5.625E-01  6.625E+00  2.976E+01  5.992E-04
   3.125E-01  5.625E-01  5.741E+00  1.769E+01 -4.754E-03
   3.750E-01  5.625E-01  5.989E+00  9.238E+00  4.452E-03
   4.375E-01  5.625E-01  7.090E+00  3.092E+00  1.951E-02
   5.000E-01  5.625E-01  8.695E+00 -1.794E+00  3.682E-02
   5.625E-01  5.625E-01  1.043E+01 -6.275E+00  5.471E-02
   6.250E-01  5.625E-01  1.183E+01 -1.114E+01  7.156E-02
   6.875E-01  5.625E-01  1.236E+01 -1.732E+01  8.420E-02
   7.500E-01  5.625E-01  1.142E+01 -2.629E+01  8.493E-02
   8.125E-01  5.625E-01  8.433E+00 -4.016E+01  5.576E-02
   8.750E-01  5.625E-01  3.420E+00 -5.921E+01 -3.743E-02
   9.375E-01  5.625E-01 -1.133E+00 -6.779E+01 -2.296E-01
   1.000E+00  5.625E-01  0.000E+00  0.000E+00 -5.000E-01
   0.000E+00  6.250E-01  0.000E+00  0.000E+00  5.000E-01
   6.250E-02  6.250E-01  8.643E+00  5.820E+01  3.278E-01
   1.250E-01  6.250E-01  1.498E+01  6.145E+01  1.847E-01
   1.875E-01  6.250E-01  1.696E+01  4.676E+01  9.703E-02
   2.500E-01  6.250E-01  1.688E+01  3.077E+01  5.660E-02
   3.125E-01  6.250E-01  1.658E+01  1.805E+01  4.573E-02
   3.750E-01  6.250E-01  1.681E+01  8.731E+00  5.038E-02
   4.375E-01  6.250E-01  1.764E+01  1.902E+00  6.243E-02
   5.000E-01  6.250E-01  1.892E+01 -3.340E+00  7.792E-02
   5.625E-01  6.250E-01  2.028E+01 -7.742E+00  9.455E-02
   6.250E-01  6.250E-01  2.125E+01 -1.201E+01  1.101E-01
   6.875E-01  6.250E-01  2.129E+01 -1.700E+01  1.215E-01
   7.500E-01  6.250E-01  1.979E+01 -2.415E+01  1.213E-01
   8.125E-01  6.250E-01  1.609E+01 -3.576E+01  9.202E-02
   8.750E-01  6.250E-01  9.849E+00 -5.336E+01 -2.043E-03
   9.375E-01  6.250E-01  2.526E+00 -6.440E+01 -2.036E-01
   1.000E+00  6.250E-01  0.000E+00  0.000E+00 -5.000E-01
   0.000E+00  6.875E-01  0.000E+00  0.000E+00  5.000E-01
   6.250E-02  6.875E-01  9.442E+00  4.952E+01  3.612E-01
   1.250E-01  6.875E-01  1.895E+01  5.554E+01  2.413E-01
   1.875E-01  6.875E-01  2.445E+01  4.438E+01  1.625E-01
   2.500E-01  6.875E-01  2.699E+01  3.013E+01  1.216E-01
   3.125E-01  6.875E-01  2.820E+01  1.776E+01  1.064E-01
   3.750E-01  6.875E-01  2.906E+01  8.179E+00  1.063E-01
   4.375E-01  6.875E-01  2.996E+01  9.808E-01  1.145E-01
   5.000E-01  6.875E-01  3.092E+01 -4.433E+00  1.268E-01
   5.625E-01  6.875E-01  3.166E+01 -8.609E+00  1.404E-01
   6.250E-01  6.875E-01  3.179E+01 -1.215E+01  1.527E-01
   6.875E-01  6.875E-01  3.084E+01 -1.587E+01  1.606E-01
   7.500E-01  6.875E-01  2.827E+01 -2.109E+01  1.571E-01
   8.125E-01  6.875E-01  2.341E+01 -3.021E+01  1.252E-01
   8.750E-01  6.875E-01  1.573E+01 -4.564E+01  2.820E-02
   9.375E-01  6.875E-01  6.048E+00 -5.795E+01 -1.819E-01
   1.000E+00  6.875E-01  0.000E+00  0.000E+00 -5.000E-01
   0.000E+00  7.500E-01  0.000E+00  0.000E+00  5.000E-01
   6.250E-02  7.500E-01  9.457E+00  3.925E+01  3.927E-01
   1.250E-01  7.500E-01  2.130E+01  4.645E+01  2.972E-01
   1.875E-01  7.500E-01  3.012E+01  3.872E+01  2.310E-01
   2.500E-01  7.500E-01  3.568E+01  2.702E+01  1.932E-01
   3.125E-01  7.500E-01  3.906E+01  1.598E+01  1.763E-01
   3.750E-01  7.500E-01  4.117E+01  6.966E+00  1.726E-01
   4.375E-01  7.500E-01  4.256E+01  4.191E-02  1.765E-01
   5.000E-01  7.500E-01  4.331E+01 -5.039E+00  1.841E-01
   5.625E-01  7.500E-01  4.332E+01 -8.616E+00  1.926E-01
   6.250E-01  7.500E-01  4.238E+01 -1.119E+01  1.994E-01
   6.875E-01  7.500E-01  4.017E+01 -1.348E+01  2.013E-01
   7.500E-01  7.500E-01  3.628E+01 -1.671E+01  1.920E-01
   8.125E-01  7.500E-01  3.013E+01 -2.323E+01  1.549E-01
   8.750E-01  7.500E-01  2.105E+01 -3.601E+01  5.334E-02
   9.375E-01  7.500E-01  9.274E+00 -4.867E+01 -1.645E-01
   1.000E+00  7.500E-01  0.000E+00  0.000E+00 -5.000E-01
   0.000E+00  8.125E-01  0.000E+00  0.000E+00  5.000E-01
   6.250E-02  8.125E-01  8.905E+00  2.822E+01  4.215E-01
   1.250E-01  8.125E-01  2.208E+01  3.488E+01  3.502E-01
   1.875E-01  8.125E-01  3.347E+01  2.999E+01  2.987E-01
   2.500E-01  8.125E-01  4.175E+01  2.119E+01  2.671E-01
   3.125E-01  8.125E-01  4.730E+01  1.227E+01  2.508E-01
   3.750E-01  8.125E-01  5.076E+01  4.682E+00  2.445E-01
   4.375E-01  8.125E-01  5.263E+01 -1.150E+00  2.439E-01
   5.000E-01  8.125E-01  5.309E+01 -5.197E+00  2.454E-01
   5.625E-01  8.125E-01  5.225E+01 -7.680E+00  2.468E-01
   6.250E-01  8.125E-01  5.019E+01 -9.006E+00  2.460E-01
   6.875E-01  8.125E-01  4.685E+01 -9.776E+00  2.400E-01
   7.500E-01  8.125E-01  4.200E+01 -1.105E+01  2.229E-01
   8.125E-01  8.125E-01  3.512E+01 -1.499E+01  1.787E-01
   8.750E-01  8.125E-01  2.536E+01 -2.478E+01  7.134E-02
   9.375E-01  8.125E-01  1.219E+01 -3.689E+01 -1.527E-01
   1.000E+00  8.125E-01  0.000E+00  0.000E+00 -5.000E-01
   0.000E+00  8.750E-01  0.000E+00  0.000E+00  5.000E-01
   6.250E-02  8.750E-01  7.992E+00  1.717E+01  4.460E-01
   1.250E-01  8.750E-01  2.130E+01  2.188E+01  3.967E-01
   1.875E-01  8.750E-01  3.392E+01  1.904E+01  3.595E-01
   2.500E-01  8.750E-01  4.371E+01  1.319E+01  3.348E-01
   3.125E-01  8.750E-01  5.038E+01  6.973E+00  3.197E-01
   3.750E-01  8.750E-01  5.425E+01  1.630E+00  3.107E-01
   4.375E-01  8.750E-01  5.572E+01 -2.283E+00  3.046E-01
   5.000E-01  8.750E-01  5.522E+01 -4.655E+00  2.991E-01
   5.625E-01  8.750E-01  5.325E+01 -5.716E+00  2.926E-01
   6.250E-01  8.750E-01  5.022E+01 -5.787E+00  2.834E-01
   6.875E-01  8.750E-01  4.640E+01 -5.289E+00  2.688E-01
   7.500E-01  8.750E-01  4.177E+01 -4.983E+00  2.429E-01
   8.125E-01  8.750E-01  3.582E+01 -6.588E+00  1.907E-01
   8.750E-01  8.750E-01  2.731E+01 -1.307E+01  7.795E-02
   9.375E-01  8.750E-01  1.445E+01 -2.331E+01 -1.486E-01
   1.000E+00  8.750E-01  0.000E+00  0.000E+00 -5.000E-01
   0.000E+00  9.375E-01  0.000E+00  0.000E+00  5.000E-01
   6.250E-02  9.375E-01  6.117E+00  6.917E+00  4.627E-01
   1.250E-01  9.375E-01  1.717E+01  8.960E+00  4.290E-01
   1.875E-01  9.375E-01  2.800E+01  7.586E+00  4.020E-01
   2.500E-01  9.375E-01  3.621E+01  4.731E+00  3.817E-01
   3.125E-01  9.375E-01  4.119E+01  1.726E+00  3.664E-01
   3.750E-01  9.375E-01  4.319E+01 -6.585E-01  3.540E-01
   4.375E-01  9.375E-01  4.282E+01 -2.116E+00  3.426E-01
   5.000E-01  9.375E-01  4.090E+01 -2.727E+00  3.309E-01
   5.625E-01  9.375E-01  3.816E+01 -2.685E+00  3.177E-01
   6.250E-01  9.375E-01  3.519E+01 -2.164E+00  3.013E-01
   6.875E-01  9.375E-01  3.238E+01 -1.323E+00  2.789E-01
   7.500E-01  9.375E-01  2.990E+01 -4.712E-01  2.447E-01
   8.125E-01  9.375E-01  2.739E+01 -5.206E-01  1.849E-01
   8.750E-01  9.375E-01  2.331E+01 -3.406E+00  6.855E-02
   9.375E-01  9.375E-01  1.432E+01 -9.585E+00 -1.551E-01
   1.000E+00  9.375E-01  0.000E+00  0.000E+00 -5.000E-01
   0.000E+00  1.000E+00  0.000E+00  0.000E+00  5.000E-01
   6.250E-02  1.000E+00  0.000E+00  0.000E+00  4.686E-01
   1.250E-01  1.000E+00  0.000E+00  0.000E+00  4.403E-01
   1.875E-01  1.000E+00  0.000E+00  0.000E+00  4.168E-01
   2.500E-01  1.000E+00  0.000E+00  0.000E+00  3.977E-01
   3.125E-01  1.000E+00  0.000E+00  0.000E+00  3.817E-01
   3.750E-01  1.000E+00  0.000E+00  0.000E+00  3.676E-01
   4.375E-01  1.000E+00  0.000E+00  0.000E+00  3.539E-01
   5.000E-01  1.000E+00  0.000E+00  0.000E+00  3.397E-01
   5.625E-01  1.000E+00  0.000E+00  0.000E+00  3.237E-01
   6.250E-01  1.000E+00  0.000E+00  0.000E+00  3.043E-01
   6.875E-01  1.000E+00  0.000E+00  0.000E+00  2.784E-01
   7.500E-01  1.000E+00  0.000E+00  0.000E+00  2.403E-01
   8.125E-01  1.000E+00  0.000E+00  0.000E+00  1.770E-01
   8.750E-01  1.000E+00  0.000E+00  0.000E+00  5.938E-02
   9.375E-01  1.000E+00  0.000E+00  0.000E+00 -1.612E-01
   1.000E+00  1.000E+00  0.000E+00  0.000E+00 -5.000E-01
 GEOMETRY T=LINE, CS=GRID, F=POINT
 1
 5
 0.0 0.0
 1.0 0.0
 1.0 1.0
 0.0 1.0
 0.0 0.0
