 VARIABLES = "X", "Y", "U", "V", "T"
 ZONE I= 17,J= 17, F=POINT
   0.000E+00  0.000E+00  0.000E+00  0.000E+00  5.000E-01
   6.250E-02  0.000E+00  0.000E+00  0.000E+00  1.184E-01
   1.250E-01  0.000E+00  0.000E+00  0.000E+00 -1.122E-01
   1.875E-01  0.000E+00  0.000E+00  0.000E+00 -2.199E-01
   2.500E-01  0.000E+00  0.000E+00  0.000E+00 -2.687E-01
   3.125E-01  0.000E+00  0.000E+00  0.000E+00 -2.936E-01
   3.750E-01  0.000E+00  0.000E+00  0.000E+00 -3.093E-01
   4.375E-01  0.000E+00  0.000E+00  0.000E+00 -3.219E-01
   5.000E-01  0.000E+00  0.000E+00  0.000E+00 -3.338E-01
   5.625E-01  0.000E+00  0.000E+00  0.000E+00 -3.462E-01
   6.250E-01  0.000E+00  0.000E+00  0.000E+00 -3.597E-01
   6.875E-01  0.000E+00  0.000E+00  0.000E+00 -3.746E-01
   7.500E-01  0.000E+00  0.000E+00  0.000E+00 -3.913E-01
   8.125E-01  0.000E+00  0.000E+00  0.000E+00 -4.111E-01
   8.750E-01  0.000E+00  0.000E+00  0.000E+00 -4.356E-01
   9.375E-01  0.000E+00  0.000E+00  0.000E+00 -4.659E-01
   1.000E+00  0.000E+00  0.000E+00  0.000E+00 -5.000E-01
   0.000E+00  6.250E-02  0.000E+00  0.000E+00  5.000E-01
   6.250E-02  6.250E-02 -1.459E+01  9.851E+00  1.173E-01
   1.250E-01  6.250E-02 -2.235E+01  2.347E+00 -1.138E-01
   1.875E-01  6.250E-02 -2.395E+01 -1.338E+00 -2.201E-01
   2.500E-01  6.250E-02 -2.344E+01 -1.665E+00 -2.669E-01
   3.125E-01  6.250E-02 -2.302E+01 -7.974E-01 -2.901E-01
   3.750E-01  6.250E-02 -2.336E+01  2.629E-01 -3.046E-01
   4.375E-01  6.250E-02 -2.455E+01  1.190E+00 -3.161E-01
   5.000E-01  6.250E-02 -2.642E+01  1.869E+00 -3.268E-01
   5.625E-01  6.250E-02 -2.859E+01  2.152E+00 -3.377E-01
   6.250E-01  6.250E-02 -3.043E+01  1.794E+00 -3.494E-01
   6.875E-01  6.250E-02 -3.104E+01  5.033E-01 -3.623E-01
   7.500E-01  6.250E-02 -2.936E+01 -1.874E+00 -3.775E-01
   8.125E-01  6.250E-02 -2.449E+01 -4.920E+00 -3.971E-01
   8.750E-01  6.250E-02 -1.629E+01 -7.308E+00 -4.240E-01
   9.375E-01  6.250E-02 -6.422E+00 -6.642E+00 -4.594E-01
   1.000E+00  6.250E-02  0.000E+00  0.000E+00 -5.000E-01
   0.000E+00  1.250E-01  0.000E+00  0.000E+00  5.000E-01
   6.250E-02  1.250E-01 -1.333E+01  2.235E+01  1.213E-01
   1.250E-01  1.250E-01 -2.376E+01  9.356E+00 -1.087E-01
   1.875E-01  1.250E-01 -2.872E+01  1.095E+00 -2.123E-01
   2.500E-01  1.250E-01 -3.074E+01 -9.279E-01 -2.551E-01
   3.125E-01  1.250E-01 -3.185E+01 -8.386E-02 -2.749E-01
   3.750E-01  1.250E-01 -3.301E+01  1.536E+00 -2.864E-01
   4.375E-01  1.250E-01 -3.454E+01  3.064E+00 -2.948E-01
   5.000E-01  1.250E-01 -3.635E+01  4.036E+00 -3.019E-01
   5.625E-01  1.250E-01 -3.808E+01  4.005E+00 -3.084E-01
   6.250E-01  1.250E-01 -3.910E+01  2.454E+00 -3.150E-01
   6.875E-01  1.250E-01 -3.857E+01 -1.071E+00 -3.228E-01
   7.500E-01  1.250E-01 -3.559E+01 -6.553E+00 -3.347E-01
   8.125E-01  1.250E-01 -2.941E+01 -1.306E+01 -3.555E-01
   8.750E-01  1.250E-01 -1.976E+01 -1.807E+01 -3.901E-01
   9.375E-01  1.250E-01 -8.051E+00 -1.629E+01 -4.408E-01
   1.000E+00  1.250E-01  0.000E+00  0.000E+00 -5.000E-01
   0.000E+00  1.875E-01  0.000E+00  0.000E+00  5.000E-01
   6.250E-02  1.875E-01 -1.020E+01  3.361E+01  1.347E-01
   1.250E-01  1.875E-01 -2.040E+01  1.774E+01 -9.017E-02
   1.875E-01  1.875E-01 -2.654E+01  5.648E+00 -1.904E-01
   2.500E-01  1.875E-01 -2.974E+01  1.462E+00 -2.294E-01
   3.125E-01  1.875E-01 -3.147E+01  1.472E+00 -2.452E-01
   3.750E-01  1.875E-01 -3.266E+01  2.948E+00 -2.528E-01
   4.375E-01  1.875E-01 -3.374E+01  4.527E+00 -2.570E-01
   5.000E-01  1.875E-01 -3.478E+01  5.414E+00 -2.589E-01
   5.625E-01  1.875E-01 -3.565E+01  4.908E+00 -2.592E-01
   6.250E-01  1.875E-01 -3.603E+01  2.286E+00 -2.589E-01
   6.875E-01  1.875E-01 -3.540E+01 -3.015E+00 -2.608E-01
   7.500E-01  1.875E-01 -3.309E+01 -1.104E+01 -2.698E-01
   8.125E-01  1.875E-01 -2.817E+01 -2.075E+01 -2.938E-01
   8.750E-01  1.875E-01 -1.980E+01 -2.867E+01 -3.406E-01
   9.375E-01  1.875E-01 -8.598E+00 -2.640E+01 -4.135E-01
   1.000E+00  1.875E-01  0.000E+00  0.000E+00 -5.000E-01
   0.000E+00  2.500E-01  0.000E+00  0.000E+00  5.000E-01
   6.250E-02  2.500E-01 -7.184E+00  4.275E+01  1.533E-01
   1.250E-01  2.500E-01 -1.608E+01  2.569E+01 -6.390E-02
   1.875E-01  2.500E-01 -2.194E+01  1.043E+01 -1.600E-01
   2.500E-01  2.500E-01 -2.500E+01  4.004E+00 -1.948E-01
   3.125E-01  2.500E-01 -2.638E+01  2.840E+00 -2.063E-01
   3.750E-01  2.500E-01 -2.693E+01  3.805E+00 -2.098E-01
   4.375E-01  2.500E-01 -2.715E+01  5.180E+00 -2.095E-01
   5.000E-01  2.500E-01 -2.724E+01  5.948E+00 -2.064E-01
   5.625E-01  2.500E-01 -2.733E+01  5.254E+00 -2.008E-01
   6.250E-01  2.500E-01 -2.745E+01  2.202E+00 -1.941E-01
   6.875E-01  2.500E-01 -2.741E+01 -4.012E+00 -1.904E-01
   7.500E-01  2.500E-01 -2.667E+01 -1.378E+01 -1.970E-01
   8.125E-01  2.500E-01 -2.410E+01 -2.635E+01 -2.244E-01
   8.750E-01  2.500E-01 -1.825E+01 -3.764E+01 -2.843E-01
   9.375E-01  2.500E-01 -8.688E+00 -3.609E+01 -3.819E-01
   1.000E+00  2.500E-01  0.000E+00  0.000E+00 -5.000E-01
   0.000E+00  3.125E-01  0.000E+00  0.000E+00  5.000E-01
   6.250E-02  3.125E-01 -4.474E+00  4.969E+01  1.745E-01
   1.250E-01  3.125E-01 -1.177E+01  3.250E+01 -3.377E-02
   1.875E-01  3.125E-01 -1.688E+01  1.457E+01 -1.257E-01
   2.500E-01  3.125E-01 -1.932E+01  5.894E+00 -1.564E-01
   3.125E-01  3.125E-01 -1.995E+01  3.404E+00 -1.637E-01
   3.750E-01  3.125E-01 -1.961E+01  3.717E+00 -1.631E-01
   4.375E-01  3.125E-01 -1.883E+01  4.835E+00 -1.591E-01
   5.000E-01  3.125E-01 -1.794E+01  5.603E+00 -1.523E-01
   5.625E-01  3.125E-01 -1.723E+01  5.113E+00 -1.425E-01
   6.250E-01  3.125E-01 -1.698E+01  2.365E+00 -1.312E-01
   6.875E-01  3.125E-01 -1.740E+01 -3.791E+00 -1.228E-01
   7.500E-01  3.125E-01 -1.815E+01 -1.435E+01 -1.263E-01
   8.125E-01  3.125E-01 -1.810E+01 -2.917E+01 -1.554E-01
   8.750E-01  3.125E-01 -1.531E+01 -4.408E+01 -2.265E-01
   9.375E-01  3.125E-01 -8.199E+00 -4.465E+01 -3.484E-01
   1.000E+00  3.125E-01  0.000E+00  0.000E+00 -5.000E-01
   0.000E+00  3.750E-01  0.000E+00  0.000E+00  5.000E-01
   6.250E-02  3.750E-01 -1.897E+00  5.452E+01  1.974E-01
   1.250E-01  3.750E-01 -7.601E+00  3.810E+01 -1.466E-03
   1.875E-01  3.750E-01 -1.205E+01  1.798E+01 -8.979E-02
   2.500E-01  3.750E-01 -1.403E+01  7.067E+00 -1.170E-01
   3.125E-01  3.750E-01 -1.410E+01  3.127E+00 -1.203E-01
   3.750E-01  3.750E-01 -1.306E+01  2.688E+00 -1.160E-01
   4.375E-01  3.750E-01 -1.147E+01  3.515E+00 -1.091E-01
   5.000E-01  3.750E-01 -9.735E+00  4.344E+00 -9.999E-02
   5.625E-01  3.750E-01 -8.220E+00  4.292E+00 -8.832E-02
   6.250E-01  3.750E-01 -7.365E+00  2.373E+00 -7.466E-02
   6.875E-01  3.750E-01 -7.642E+00 -2.841E+00 -6.299E-02
   7.500E-01  3.750E-01 -9.145E+00 -1.308E+01 -6.289E-02
   8.125E-01  3.750E-01 -1.103E+01 -2.920E+01 -9.119E-02
   8.750E-01  3.750E-01 -1.120E+01 -4.754E+01 -1.702E-01
   9.375E-01  3.750E-01 -7.061E+00 -5.140E+01 -3.144E-01
   1.000E+00  3.750E-01  0.000E+00  0.000E+00 -5.000E-01
   0.000E+00  4.375E-01  0.000E+00  0.000E+00  5.000E-01
   6.250E-02  4.375E-01  7.047E-01  5.729E+01  2.222E-01
   1.250E-01  4.375E-01 -3.279E+00  4.265E+01  3.313E-02
   1.875E-01  4.375E-01 -7.345E+00  2.100E+01 -5.268E-02
   2.500E-01  4.375E-01 -9.368E+00  7.951E+00 -7.744E-02
   3.125E-01  4.375E-01 -9.415E+00  2.427E+00 -7.726E-02
   3.750E-01  4.375E-01 -8.149E+00  1.082E+00 -6.951E-02
   4.375E-01  4.375E-01 -6.168E+00  1.514E+00 -6.000E-02
   5.000E-01  4.375E-01 -3.922E+00  2.354E+00 -4.959E-02
   5.625E-01  4.375E-01 -1.824E+00  2.743E+00 -3.764E-02
   6.250E-01  4.375E-01 -3.412E-01  1.787E+00 -2.406E-02
   6.875E-01  4.375E-01 -1.008E-02 -2.010E+00 -1.155E-02
   7.500E-01  4.375E-01 -1.276E+00 -1.096E+01 -8.843E-03
   8.125E-01  4.375E-01 -3.950E+00 -2.711E+01 -3.477E-02
   8.750E-01  4.375E-01 -6.403E+00 -4.805E+01 -1.181E-01
   9.375E-01  4.375E-01 -5.343E+00 -5.585E+01 -2.812E-01
   1.000E+00  4.375E-01  0.000E+00  0.000E+00 -5.000E-01
   0.000E+00  5.000E-01  0.000E+00  0.000E+00  5.000E-01
   6.250E-02  5.000E-01  3.186E+00  5.780E+01  2.501E-01
   1.250E-01  5.000E-01  1.437E+00  4.615E+01  7.227E-02
   1.875E-01  5.000E-01 -2.213E+00  2.407E+01 -1.249E-02
   2.500E-01  5.000E-01 -4.674E+00  9.137E+00 -3.669E-02
   3.125E-01  5.000E-01 -5.222E+00  1.907E+00 -3.405E-02
   3.750E-01  5.000E-01 -4.257E+00 -5.591E-01 -2.323E-02
   4.375E-01  5.000E-01 -2.354E+00 -7.117E-01 -1.135E-02
   5.000E-01  5.000E-01 -2.685E-06  1.172E-05  3.530E-08
   5.625E-01  5.000E-01  2.354E+00  7.118E-01  1.135E-02
   6.250E-01  5.000E-01  4.257E+00  5.591E-01  2.323E-02
   6.875E-01  5.000E-01  5.222E+00 -1.907E+00  3.405E-02
   7.500E-01  5.000E-01  4.674E+00 -9.137E+00  3.669E-02
   8.125E-01  5.000E-01  2.213E+00 -2.407E+01  1.249E-02
   8.750E-01  5.000E-01 -1.437E+00 -4.615E+01 -7.227E-02
   9.375E-01  5.000E-01 -3.186E+00 -5.780E+01 -2.501E-01
   1.000E+00  5.000E-01  0.000E+00  0.000E+00 -5.000E-01
   0.000E+00  5.625E-01  0.000E+00  0.000E+00  5.000E-01
   6.250E-02  5.625E-01  5.343E+00  5.585E+01  2.812E-01
   1.250E-01  5.625E-01  6.403E+00  4.805E+01  1.181E-01
   1.875E-01  5.625E-01  3.950E+00  2.711E+01  3.477E-02
   2.500E-01  5.625E-01  1.276E+00  1.096E+01  8.843E-03
   3.125E-01  5.625E-01  1.007E-02  2.010E+00  1.155E-02
   3.750E-01  5.625E-01  3.412E-01 -1.787E+00  2.406E-02
   4.375E-01  5.625E-01  1.824E+00 -2.743E+00  3.764E-02
   5.000E-01  5.625E-01  3.922E+00 -2.354E+00  4.959E-02
   5.625E-01  5.625E-01  6.168E+00 -1.514E+00  6.000E-02
   6.250E-01  5.625E-01  8.149E+00 -1.082E+00  6.951E-02
   6.875E-01  5.625E-01  9.415E+00 -2.427E+00  7.726E-02
   7.500E-01  5.625E-01  9.368E+00 -7.951E+00  7.744E-02
   8.125E-01  5.625E-01  7.345E+00 -2.100E+01  5.268E-02
   8.750E-01  5.625E-01  3.279E+00 -4.265E+01 -3.313E-02
   9.375E-01  5.625E-01 -7.047E-01 -5.729E+01 -2.222E-01
   1.000E+00  5.625E-01  0.000E+00  0.000E+00 -5.000E-01
   0.000E+00  6.250E-01  0.000E+00  0.000E+00  5.000E-01
   6.250E-02  6.250E-01  7.061E+00  5.140E+01  3.144E-01
   1.250E-01  6.250E-01  1.120E+01  4.754E+01  1.702E-01
   1.875E-01  6.250E-01  1.103E+01  2.920E+01  9.119E-02
   2.500E-01  6.250E-01  9.145E+00  1.308E+01  6.289E-02
   3.125E-01  6.250E-01  7.642E+00  2.841E+00  6.299E-02
   3.750E-01  6.250E-01  7.364E+00 -2.373E+00  7.466E-02
   4.375E-01  6.250E-01  8.220E+00 -4.292E+00  8.832E-02
   5.000E-01  6.250E-01  9.735E+00 -4.344E+00  9.999E-02
   5.625E-01  6.250E-01  1.147E+01 -3.515E+00  1.091E-01
   6.250E-01  6.250E-01  1.306E+01 -2.688E+00  1.160E-01
   6.875E-01  6.250E-01  1.410E+01 -3.127E+00  1.203E-01
   7.500E-01  6.250E-01  1.403E+01 -7.067E+00  1.170E-01
   8.125E-01  6.250E-01  1.205E+01 -1.798E+01  8.979E-02
   8.750E-01  6.250E-01  7.601E+00 -3.810E+01  1.466E-03
   9.375E-01  6.250E-01  1.897E+00 -5.452E+01 -1.974E-01
   1.000E+00  6.250E-01  0.000E+00  0.000E+00 -5.000E-01
   0.000E+00  6.875E-01  0.000E+00  0.000E+00  5.000E-01
   6.250E-02  6.875E-01  8.199E+00  4.465E+01  3.484E-01
   1.250E-01  6.875E-01  1.531E+01  4.408E+01  2.265E-01
   1.875E-01  6.875E-01  1.810E+01  2.917E+01  1.554E-01
   2.500E-01  6.875E-01  1.815E+01  1.435E+01  1.263E-01
   3.125E-01  6.875E-01  1.740E+01  3.791E+00  1.228E-01
   3.750E-01  6.875E-01  1.698E+01 -2.365E+00  1.312E-01
   4.375E-01  6.875E-01  1.723E+01 -5.113E+00  1.425E-01
   5.000E-01  6.875E-01  1.794E+01 -5.603E+00  1.523E-01
   5.625E-01  6.875E-01  1.883E+01 -4.835E+00  1.591E-01
   6.250E-01  6.875E-01  1.961E+01 -3.717E+00  1.631E-01
   6.875E-01  6.875E-01  1.995E+01 -3.404E+00  1.637E-01
   7.500E-01  6.875E-01  1.932E+01 -5.894E+00  1.564E-01
   8.125E-01  6.875E-01  1.688E+01 -1.457E+01  1.257E-01
   8.750E-01  6.875E-01  1.177E+01 -3.250E+01  3.377E-02
   9.375E-01  6.875E-01  4.474E+00 -4.969E+01 -1.745E-01
   1.000E+00  6.875E-01  0.000E+00  0.000E+00 -5.000E-01
   0.000E+00  7.500E-01  0.000E+00  0.000E+00  5.000E-01
   6.250E-02  7.500E-01  8.688E+00  3.609E+01  3.819E-01
   1.250E-01  7.500E-01  1.825E+01  3.764E+01  2.843E-01
   1.875E-01  7.500E-01  2.410E+01  2.635E+01  2.244E-01
   2.500E-01  7.500E-01  2.667E+01  1.378E+01  1.970E-01
   3.125E-01  7.500E-01  2.741E+01  4.012E+00  1.904E-01
   3.750E-01  7.500E-01  2.745E+01 -2.202E+00  1.941E-01
   4.375E-01  7.500E-01  2.733E+01 -5.254E+00  2.008E-01
   5.000E-01  7.500E-01  2.724E+01 -5.948E+00  2.064E-01
   5.625E-01  7.500E-01  2.715E+01 -5.180E+00  2.095E-01
   6.250E-01  7.500E-01  2.693E+01 -3.805E+00  2.098E-01
   6.875E-01  7.500E-01  2.638E+01 -2.840E+00  2.063E-01
   7.500E-01  7.500E-01  2.500E+01 -4.004E+00  1.948E-01
   8.125E-01  7.500E-01  2.194E+01 -1.043E+01  1.600E-01
   8.750E-01  7.500E-01  1.608E+01 -2.569E+01  6.390E-02
   9.375E-01  7.500E-01  7.184E+00 -4.275E+01 -1.533E-01
   1.000E+00  7.500E-01  0.000E+00  0.000E+00 -5.000E-01
   0.000E+00  8.125E-01  0.000E+00  0.000E+00  5.000E-01
   6.250E-02  8.125E-01  8.598E+00  2.640E+01  4.135E-01
   1.250E-01  8.125E-01  1.980E+01  2.867E+01  3.406E-01
   1.875E-01  8.125E-01  2.817E+01  2.075E+01  2.938E-01
   2.500E-01  8.125E-01  3.309E+01  1.104E+01  2.698E-01
   3.125E-01  8.125E-01  3.540E+01  3.015E+00  2.608E-01
   3.750E-01  8.125E-01  3.603E+01 -2.286E+00  2.589E-01
   4.375E-01  8.125E-01  3.565E+01 -4.908E+00  2.592E-01
   5.000E-01  8.125E-01  3.478E+01 -5.414E+00  2.589E-01
   5.625E-01  8.125E-01  3.374E+01 -4.527E+00  2.570E-01
   6.250E-01  8.125E-01  3.266E+01 -2.948E+00  2.528E-01
   6.875E-01  8.125E-01  3.147E+01 -1.472E+00  2.452E-01
   7.500E-01  8.125E-01  2.974E+01 -1.462E+00  2.294E-01
   8.125E-01  8.125E-01  2.654E+01 -5.648E+00  1.904E-01
   8.750E-01  8.125E-01  2.040E+01 -1.774E+01  9.017E-02
   9.375E-01  8.125E-01  1.020E+01 -3.361E+01 -1.347E-01
   1.000E+00  8.125E-01  0.000E+00  0.000E+00 -5.000E-01
   0.000E+00  8.750E-01  0.000E+00  0.000E+00  5.000E-01
   6.250E-02  8.750E-01  8.051E+00  1.629E+01  4.408E-01
   1.250E-01  8.750E-01  1.976E+01  1.807E+01  3.901E-01
   1.875E-01  8.750E-01  2.941E+01  1.306E+01  3.555E-01
   2.500E-01  8.750E-01  3.559E+01  6.553E+00  3.347E-01
   3.125E-01  8.750E-01  3.857E+01  1.071E+00  3.228E-01
   3.750E-01  8.750E-01  3.910E+01 -2.454E+00  3.150E-01
   4.375E-01  8.750E-01  3.808E+01 -4.005E+00  3.084E-01
   5.000E-01  8.750E-01  3.635E+01 -4.036E+00  3.019E-01
   5.625E-01  8.750E-01  3.454E+01 -3.064E+00  2.948E-01
   6.250E-01  8.750E-01  3.301E+01 -1.536E+00  2.864E-01
   6.875E-01  8.750E-01  3.185E+01  8.387E-02  2.749E-01
   7.500E-01  8.750E-01  3.074E+01  9.279E-01  2.551E-01
   8.125E-01  8.750E-01  2.872E+01 -1.095E+00  2.123E-01
   8.750E-01  8.750E-01  2.376E+01 -9.356E+00  1.087E-01
   9.375E-01  8.750E-01  1.333E+01 -2.235E+01 -1.213E-01
   1.000E+00  8.750E-01  0.000E+00  0.000E+00 -5.000E-01
   0.000E+00  9.375E-01  0.000E+00  0.000E+00  5.000E-01
   6.250E-02  9.375E-01  6.422E+00  6.642E+00  4.594E-01
   1.250E-01  9.375E-01  1.629E+01  7.308E+00  4.240E-01
   1.875E-01  9.375E-01  2.449E+01  4.920E+00  3.971E-01
   2.500E-01  9.375E-01  2.936E+01  1.874E+00  3.775E-01
   3.125E-01  9.375E-01  3.104E+01 -5.033E-01  3.623E-01
   3.750E-01  9.375E-01  3.043E+01 -1.794E+00  3.494E-01
   4.375E-01  9.375E-01  2.859E+01 -2.152E+00  3.377E-01
   5.000E-01  9.375E-01  2.642E+01 -1.869E+00  3.268E-01
   5.625E-01  9.375E-01  2.455E+01 -1.190E+00  3.161E-01
   6.250E-01  9.375E-01  2.336E+01 -2.629E-01  3.046E-01
   6.875E-01  9.375E-01  2.302E+01  7.974E-01  2.901E-01
   7.500E-01  9.375E-01  2.344E+01  1.665E+00  2.669E-01
   8.125E-01  9.375E-01  2.395E+01  1.338E+00  2.201E-01
   8.750E-01  9.375E-01  2.235E+01 -2.347E+00  1.138E-01
   9.375E-01  9.375E-01  1.459E+01 -9.851E+00 -1.173E-01
   1.000E+00  9.375E-01  0.000E+00  0.000E+00 -5.000E-01
   0.000E+00  1.000E+00  0.000E+00  0.000E+00  5.000E-01
   6.250E-02  1.000E+00  0.000E+00  0.000E+00  4.659E-01
   1.250E-01  1.000E+00  0.000E+00  0.000E+00  4.356E-01
   1.875E-01  1.000E+00  0.000E+00  0.000E+00  4.111E-01
   2.500E-01  1.000E+00  0.000E+00  0.000E+00  3.913E-01
   3.125E-01  1.000E+00  0.000E+00  0.000E+00  3.746E-01
   3.750E-01  1.000E+00  0.000E+00  0.000E+00  3.597E-01
   4.375E-01  1.000E+00  0.000E+00  0.000E+00  3.462E-01
   5.000E-01  1.000E+00  0.000E+00  0.000E+00  3.338E-01
   5.625E-01  1.000E+00  0.000E+00  0.000E+00  3.219E-01
   6.250E-01  1.000E+00  0.000E+00  0.000E+00  3.093E-01
   6.875E-01  1.000E+00  0.000E+00  0.000E+00  2.936E-01
   7.500E-01  1.000E+00  0.000E+00  0.000E+00  2.687E-01
   8.125E-01  1.000E+00  0.000E+00  0.000E+00  2.199E-01
   8.750E-01  1.000E+00  0.000E+00  0.000E+00  1.122E-01
   9.375E-01  1.000E+00  0.000E+00  0.000E+00 -1.184E-01
   1.000E+00  1.000E+00  0.000E+00  0.000E+00 -5.000E-01
 GEOMETRY T=LINE, CS=GRID, F=POINT
 1
 5
 0.0 0.0
 1.0 0.0
 1.0 1.0
 0.0 1.0
 0.0 0.0
