 VARIABLES = "X", "Y", "U", "V", "T"
 ZONE I= 17,J= 17, F=POINT
   0.000E+00  0.000E+00  0.000E+00  0.000E+00  5.000E-01
   6.250E-02  0.000E+00  0.000E+00  0.000E+00  1.131E-01
   1.250E-01  0.000E+00  0.000E+00  0.000E+00 -1.202E-01
   1.875E-01  0.000E+00  0.000E+00  0.000E+00 -2.289E-01
   2.500E-01  0.000E+00  0.000E+00  0.000E+00 -2.781E-01
   3.125E-01  0.000E+00  0.000E+00  0.000E+00 -3.033E-01
   3.750E-01  0.000E+00  0.000E+00  0.000E+00 -3.192E-01
   4.375E-01  0.000E+00  0.000E+00  0.000E+00 -3.318E-01
   5.000E-01  0.000E+00  0.000E+00  0.000E+00 -3.436E-01
   5.625E-01  0.000E+00  0.000E+00  0.000E+00 -3.555E-01
   6.250E-01  0.000E+00  0.000E+00  0.000E+00 -3.682E-01
   6.875E-01  0.000E+00  0.000E+00  0.000E+00 -3.820E-01
   7.500E-01  0.000E+00  0.000E+00  0.000E+00 -3.976E-01
   8.125E-01  0.000E+00  0.000E+00  0.000E+00 -4.162E-01
   8.750E-01  0.000E+00  0.000E+00  0.000E+00 -4.394E-01
   9.375E-01  0.000E+00  0.000E+00  0.000E+00 -4.678E-01
   1.000E+00  0.000E+00  0.000E+00  0.000E+00 -5.000E-01
   0.000E+00  6.250E-02  0.000E+00  0.000E+00  5.000E-01
   6.250E-02  6.250E-02 -1.478E+01  9.936E+00  1.115E-01
   1.250E-01  6.250E-02 -2.278E+01  2.510E+00 -1.226E-01
   1.875E-01  6.250E-02 -2.475E+01 -1.070E+00 -2.300E-01
   2.500E-01  6.250E-02 -2.464E+01 -1.388E+00 -2.771E-01
   3.125E-01  6.250E-02 -2.450E+01 -5.989E-01 -3.005E-01
   3.750E-01  6.250E-02 -2.495E+01  3.368E-01 -3.151E-01
   4.375E-01  6.250E-02 -2.609E+01  1.134E+00 -3.265E-01
   5.000E-01  6.250E-02 -2.774E+01  1.695E+00 -3.370E-01
   5.625E-01  6.250E-02 -2.956E+01  1.876E+00 -3.474E-01
   6.250E-01  6.250E-02 -3.095E+01  1.447E+00 -3.583E-01
   6.875E-01  6.250E-02 -3.109E+01  1.241E-01 -3.702E-01
   7.500E-01  6.250E-02 -2.900E+01 -2.181E+00 -3.844E-01
   8.125E-01  6.250E-02 -2.390E+01 -5.024E+00 -4.030E-01
   8.750E-01  6.250E-02 -1.573E+01 -7.168E+00 -4.284E-01
   9.375E-01  6.250E-02 -6.127E+00 -6.377E+00 -4.618E-01
   1.000E+00  6.250E-02  0.000E+00  0.000E+00 -5.000E-01
   0.000E+00  1.250E-01  0.000E+00  0.000E+00  5.000E-01
   6.250E-02  1.250E-01 -1.368E+01  2.278E+01  1.144E-01
   1.250E-01  1.250E-01 -2.455E+01  9.974E+00 -1.190E-01
   1.875E-01  1.250E-01 -3.004E+01  1.862E+00 -2.237E-01
   2.500E-01  1.250E-01 -3.252E+01 -2.545E-01 -2.668E-01
   3.125E-01  1.250E-01 -3.392E+01  3.116E-01 -2.866E-01
   3.750E-01  1.250E-01 -3.516E+01  1.593E+00 -2.981E-01
   4.375E-01  1.250E-01 -3.656E+01  2.790E+00 -3.063E-01
   5.000E-01  1.250E-01 -3.806E+01  3.468E+00 -3.131E-01
   5.625E-01  1.250E-01 -3.933E+01  3.207E+00 -3.191E-01
   6.250E-01  1.250E-01 -3.981E+01  1.534E+00 -3.251E-01
   6.875E-01  1.250E-01 -3.874E+01 -1.949E+00 -3.324E-01
   7.500E-01  1.250E-01 -3.534E+01 -7.188E+00 -3.437E-01
   8.125E-01  1.250E-01 -2.890E+01 -1.327E+01 -3.635E-01
   8.750E-01  1.250E-01 -1.922E+01 -1.778E+01 -3.964E-01
   9.375E-01  1.250E-01 -7.740E+00 -1.573E+01 -4.443E-01
   1.000E+00  1.250E-01  0.000E+00  0.000E+00 -5.000E-01
   0.000E+00  1.875E-01  0.000E+00  0.000E+00  5.000E-01
   6.250E-02  1.875E-01 -1.059E+01  3.449E+01  1.272E-01
   1.250E-01  1.875E-01 -2.128E+01  1.887E+01 -1.014E-01
   1.875E-01  1.875E-01 -2.791E+01  6.898E+00 -2.028E-01
   2.500E-01  1.875E-01 -3.153E+01  2.498E+00 -2.421E-01
   3.125E-01  1.875E-01 -3.354E+01  2.043E+00 -2.580E-01
   3.750E-01  1.875E-01 -3.483E+01  2.973E+00 -2.657E-01
   4.375E-01  1.875E-01 -3.581E+01  4.028E+00 -2.697E-01
   5.000E-01  1.875E-01 -3.661E+01  4.463E+00 -2.713E-01
   5.625E-01  1.875E-01 -3.711E+01  3.626E+00 -2.714E-01
   6.250E-01  1.875E-01 -3.705E+01  8.540E-01 -2.710E-01
   6.875E-01  1.875E-01 -3.597E+01 -4.348E+00 -2.727E-01
   7.500E-01  1.875E-01 -3.327E+01 -1.201E+01 -2.815E-01
   8.125E-01  1.875E-01 -2.802E+01 -2.114E+01 -3.044E-01
   8.750E-01  1.875E-01 -1.948E+01 -2.833E+01 -3.490E-01
   9.375E-01  1.875E-01 -8.346E+00 -2.560E+01 -4.182E-01
   1.000E+00  1.875E-01  0.000E+00  0.000E+00 -5.000E-01
   0.000E+00  2.500E-01  0.000E+00  0.000E+00  5.000E-01
   6.250E-02  2.500E-01 -7.475E+00  4.406E+01  1.458E-01
   1.250E-01  2.500E-01 -1.680E+01  2.729E+01 -7.508E-02
   1.875E-01  2.500E-01 -2.309E+01  1.212E+01 -1.723E-01
   2.500E-01  2.500E-01 -2.654E+01  5.380E+00 -2.075E-01
   3.125E-01  2.500E-01 -2.822E+01  3.607E+00 -2.194E-01
   3.750E-01  2.500E-01 -2.895E+01  3.865E+00 -2.230E-01
   4.375E-01  2.500E-01 -2.920E+01  4.568E+00 -2.229E-01
   5.000E-01  2.500E-01 -2.922E+01  4.765E+00 -2.199E-01
   5.625E-01  2.500E-01 -2.914E+01  3.652E+00 -2.144E-01
   6.250E-01  2.500E-01 -2.900E+01  3.964E-01 -2.081E-01
   6.875E-01  2.500E-01 -2.865E+01 -5.737E+00 -2.047E-01
   7.500E-01  2.500E-01 -2.752E+01 -1.514E+01 -2.110E-01
   8.125E-01  2.500E-01 -2.454E+01 -2.706E+01 -2.371E-01
   8.750E-01  2.500E-01 -1.831E+01 -3.745E+01 -2.942E-01
   9.375E-01  2.500E-01 -8.575E+00 -3.520E+01 -3.875E-01
   1.000E+00  2.500E-01  0.000E+00  0.000E+00 -5.000E-01
   0.000E+00  3.125E-01  0.000E+00  0.000E+00  5.000E-01
   6.250E-02  3.125E-01 -4.546E+00  5.129E+01  1.679E-01
   1.250E-01  3.125E-01 -1.213E+01  3.449E+01 -4.362E-02
   1.875E-01  3.125E-01 -1.758E+01  1.664E+01 -1.364E-01
   2.500E-01  3.125E-01 -2.037E+01  7.620E+00 -1.674E-01
   3.125E-01  3.125E-01 -2.134E+01  4.449E+00 -1.752E-01
   3.750E-01  3.125E-01 -2.130E+01  3.957E+00 -1.752E-01
   4.375E-01  3.125E-01 -2.075E+01  4.300E+00 -1.719E-01
   5.000E-01  3.125E-01 -2.000E+01  4.405E+00 -1.657E-01
   5.625E-01  3.125E-01 -1.935E+01  3.411E+00 -1.567E-01
   6.250E-01  3.125E-01 -1.908E+01  3.581E-01 -1.460E-01
   6.875E-01  3.125E-01 -1.933E+01 -5.830E+00 -1.381E-01
   7.500E-01  3.125E-01 -1.974E+01 -1.612E+01 -1.412E-01
   8.125E-01  3.125E-01 -1.921E+01 -3.035E+01 -1.687E-01
   8.750E-01  3.125E-01 -1.585E+01 -4.429E+01 -2.368E-01
   9.375E-01  3.125E-01 -8.305E+00 -4.391E+01 -3.542E-01
   1.000E+00  3.125E-01  0.000E+00  0.000E+00 -5.000E-01
   0.000E+00  3.750E-01  0.000E+00  0.000E+00  5.000E-01
   6.250E-02  3.750E-01 -1.642E+00  5.619E+01  1.926E-01
   1.250E-01  3.750E-01 -7.445E+00  4.033E+01 -8.716E-03
   1.875E-01  3.750E-01 -1.210E+01  2.035E+01 -9.732E-02
   2.500E-01  3.750E-01 -1.435E+01  9.136E+00 -1.244E-01
   3.125E-01  3.750E-01 -1.477E+01  4.538E+00 -1.280E-01
   3.750E-01  3.750E-01 -1.412E+01  3.275E+00 -1.247E-01
   4.375E-01  3.750E-01 -1.294E+01  3.274E+00 -1.191E-01
   5.000E-01  3.750E-01 -1.157E+01  3.369E+00 -1.114E-01
   5.625E-01  3.750E-01 -1.034E+01  2.724E+00 -1.009E-01
   6.250E-01  3.750E-01 -9.668E+00  3.706E-01 -8.831E-02
   6.875E-01  3.750E-01 -9.966E+00 -5.072E+00 -7.712E-02
   7.500E-01  3.750E-01 -1.124E+01 -1.526E+01 -7.651E-02
   8.125E-01  3.750E-01 -1.267E+01 -3.095E+01 -1.031E-01
   8.750E-01  3.750E-01 -1.221E+01 -4.835E+01 -1.794E-01
   9.375E-01  3.750E-01 -7.419E+00 -5.106E+01 -3.196E-01
   1.000E+00  3.750E-01  0.000E+00  0.000E+00 -5.000E-01
   0.000E+00  4.375E-01  0.000E+00  0.000E+00  5.000E-01
   6.250E-02  4.375E-01  1.234E+00  5.873E+01  2.202E-01
   1.250E-01  4.375E-01 -2.530E+00  4.495E+01  2.980E-02
   1.875E-01  4.375E-01 -6.636E+00  2.355E+01 -5.569E-02
   2.500E-01  4.375E-01 -8.795E+00  1.029E+01 -7.958E-02
   3.125E-01  4.375E-01 -9.114E+00  4.220E+00 -7.930E-02
   3.750E-01  4.375E-01 -8.250E+00  2.126E+00 -7.250E-02
   4.375E-01  4.375E-01 -6.765E+00  1.745E+00 -6.467E-02
   5.000E-01  4.375E-01 -5.035E+00  1.806E+00 -5.623E-02
   5.625E-01  4.375E-01 -3.396E+00  1.510E+00 -4.613E-02
   6.250E-01  4.375E-01 -2.252E+00 -1.723E-02 -3.391E-02
   6.875E-01  4.375E-01 -2.100E+00 -4.255E+00 -2.187E-02
   7.500E-01  4.375E-01 -3.331E+00 -1.342E+01 -1.854E-02
   8.125E-01  4.375E-01 -5.746E+00 -2.939E+01 -4.300E-02
   8.750E-01  4.375E-01 -7.666E+00 -4.954E+01 -1.243E-01
   9.375E-01  4.375E-01 -5.901E+00 -5.611E+01 -2.849E-01
   1.000E+00  4.375E-01  0.000E+00  0.000E+00 -5.000E-01
   0.000E+00  5.000E-01  0.000E+00  0.000E+00  5.000E-01
   6.250E-02  5.000E-01  3.810E+00  5.872E+01  2.512E-01
   1.250E-01  5.000E-01  2.619E+00  4.820E+01  7.388E-02
   1.875E-01  5.000E-01 -7.882E-01  2.662E+01 -9.843E-03
   2.500E-01  5.000E-01 -3.220E+00  1.161E+01 -3.277E-02
   3.125E-01  5.000E-01 -3.914E+00  3.992E+00 -2.960E-02
   3.750E-01  5.000E-01 -3.255E+00  9.254E-01 -1.941E-02
   4.375E-01  5.000E-01 -1.806E+00  5.878E-02 -9.188E-03
   5.000E-01  5.000E-01 -1.421E-06 -7.502E-08 -9.839E-08
   5.625E-01  5.000E-01  1.806E+00 -5.878E-02  9.188E-03
   6.250E-01  5.000E-01  3.255E+00 -9.254E-01  1.941E-02
   6.875E-01  5.000E-01  3.914E+00 -3.992E+00  2.960E-02
   7.500E-01  5.000E-01  3.220E+00 -1.161E+01  3.277E-02
   8.125E-01  5.000E-01  7.882E-01 -2.662E+01  9.843E-03
   8.750E-01  5.000E-01 -2.619E+00 -4.820E+01 -7.388E-02
   9.375E-01  5.000E-01 -3.810E+00 -5.872E+01 -2.512E-01
   1.000E+00  5.000E-01  0.000E+00  0.000E+00 -5.000E-01
   0.000E+00  5.625E-01  0.000E+00  0.000E+00  5.000E-01
   6.250E-02  5.625E-01  5.901E+00  5.611E+01  2.849E-01
   1.250E-01  5.625E-01  7.666E+00  4.954E+01  1.243E-01
   1.875E-01  5.625E-01  5.746E+00  2.939E+01  4.300E-02
   2.500E-01  5.625E-01  3.331E+00  1.342E+01  1.854E-02
   3.125E-01  5.625E-01  2.100E+00  4.255E+00  2.187E-02
   3.750E-01  5.625E-01  2.252E+00  1.723E-02  3.391E-02
   4.375E-01  5.625E-01  3.396E+00 -1.510E+00  4.613E-02
   5.000E-01  5.625E-01  5.035E+00 -1.806E+00  5.623E-02
   5.625E-01  5.625E-01  6.765E+00 -1.745E+00  6.467E-02
   6.250E-01  5.625E-01  8.250E+00 -2.126E+00  7.250E-02
   6.875E-01  5.625E-01  9.114E+00 -4.220E+00  7.930E-02
   7.500E-01  5.625E-01  8.795E+00 -1.029E+01  7.958E-02
   8.125E-01  5.625E-01  6.636E+00 -2.355E+01  5.569E-02
   8.750E-01  5.625E-01  2.530E+00 -4.495E+01 -2.980E-02
   9.375E-01  5.625E-01 -1.234E+00 -5.873E+01 -2.202E-01
   1.000E+00  5.625E-01  0.000E+00  0.000E+00 -5.000E-01
   0.000E+00  6.250E-01  0.000E+00  0.000E+00  5.000E-01
   6.250E-02  6.250E-01  7.419E+00  5.106E+01  3.196E-01
   1.250E-01  6.250E-01  1.221E+01  4.835E+01  1.794E-01
   1.875E-01  6.250E-01  1.267E+01  3.095E+01  1.031E-01
   2.500E-01  6.250E-01  1.124E+01  1.526E+01  7.651E-02
   3.125E-01  6.250E-01  9.966E+00  5.072E+00  7.712E-02
   3.750E-01  6.250E-01  9.668E+00 -3.706E-01  8.831E-02
   4.375E-01  6.250E-01  1.034E+01 -2.724E+00  1.009E-01
   5.000E-01  6.250E-01  1.157E+01 -3.369E+00  1.114E-01
   5.625E-01  6.250E-01  1.294E+01 -3.274E+00  1.191E-01
   6.250E-01  6.250E-01  1.412E+01 -3.275E+00  1.247E-01
   6.875E-01  6.250E-01  1.477E+01 -4.538E+00  1.280E-01
   7.500E-01  6.250E-01  1.435E+01 -9.136E+00  1.244E-01
   8.125E-01  6.250E-01  1.210E+01 -2.035E+01  9.732E-02
   8.750E-01  6.250E-01  7.445E+00 -4.033E+01  8.716E-03
   9.375E-01  6.250E-01  1.642E+00 -5.619E+01 -1.926E-01
   1.000E+00  6.250E-01  0.000E+00  0.000E+00 -5.000E-01
   0.000E+00  6.875E-01  0.000E+00  0.000E+00  5.000E-01
   6.250E-02  6.875E-01  8.305E+00  4.391E+01  3.542E-01
   1.250E-01  6.875E-01  1.585E+01  4.429E+01  2.368E-01
   1.875E-01  6.875E-01  1.921E+01  3.035E+01  1.687E-01
   2.500E-01  6.875E-01  1.974E+01  1.612E+01  1.412E-01
   3.125E-01  6.875E-01  1.933E+01  5.830E+00  1.381E-01
   3.750E-01  6.875E-01  1.908E+01 -3.581E-01  1.460E-01
   4.375E-01  6.875E-01  1.935E+01 -3.411E+00  1.567E-01
   5.000E-01  6.875E-01  2.000E+01 -4.405E+00  1.657E-01
   5.625E-01  6.875E-01  2.075E+01 -4.300E+00  1.719E-01
   6.250E-01  6.875E-01  2.130E+01 -3.957E+00  1.752E-01
   6.875E-01  6.875E-01  2.134E+01 -4.449E+00  1.752E-01
   7.500E-01  6.875E-01  2.037E+01 -7.620E+00  1.674E-01
   8.125E-01  6.875E-01  1.758E+01 -1.664E+01  1.364E-01
   8.750E-01  6.875E-01  1.213E+01 -3.449E+01  4.362E-02
   9.375E-01  6.875E-01  4.546E+00 -5.129E+01 -1.679E-01
   1.000E+00  6.875E-01  0.000E+00  0.000E+00 -5.000E-01
   0.000E+00  7.500E-01  0.000E+00  0.000E+00  5.000E-01
   6.250E-02  7.500E-01  8.575E+00  3.520E+01  3.875E-01
   1.250E-01  7.500E-01  1.831E+01  3.745E+01  2.942E-01
   1.875E-01  7.500E-01  2.454E+01  2.706E+01  2.371E-01
   2.500E-01  7.500E-01  2.752E+01  1.514E+01  2.110E-01
   3.125E-01  7.500E-01  2.865E+01  5.737E+00  2.047E-01
   3.750E-01  7.500E-01  2.900E+01 -3.964E-01  2.081E-01
   4.375E-01  7.500E-01  2.914E+01 -3.652E+00  2.144E-01
   5.000E-01  7.500E-01  2.922E+01 -4.765E+00  2.199E-01
   5.625E-01  7.500E-01  2.920E+01 -4.568E+00  2.229E-01
   6.250E-01  7.500E-01  2.895E+01 -3.865E+00  2.230E-01
   6.875E-01  7.500E-01  2.822E+01 -3.607E+00  2.194E-01
   7.500E-01  7.500E-01  2.654E+01 -5.380E+00  2.075E-01
   8.125E-01  7.500E-01  2.309E+01 -1.212E+01  1.723E-01
   8.750E-01  7.500E-01  1.680E+01 -2.729E+01  7.508E-02
   9.375E-01  7.500E-01  7.475E+00 -4.406E+01 -1.458E-01
   1.000E+00  7.500E-01  0.000E+00  0.000E+00 -5.000E-01
   0.000E+00  8.125E-01  0.000E+00  0.000E+00  5.000E-01
   6.250E-02  8.125E-01  8.346E+00  2.560E+01  4.182E-01
   1.250E-01  8.125E-01  1.948E+01  2.833E+01  3.490E-01
   1.875E-01  8.125E-01  2.802E+01  2.114E+01  3.044E-01
   2.500E-01  8.125E-01  3.327E+01  1.201E+01  2.815E-01
   3.125E-01  8.125E-01  3.597E+01  4.348E+00  2.727E-01
   3.750E-01  8.125E-01  3.705E+01 -8.540E-01  2.710E-01
   4.375E-01  8.125E-01  3.711E+01 -3.626E+00  2.714E-01
   5.000E-01  8.125E-01  3.661E+01 -4.463E+00  2.713E-01
   5.625E-01  8.125E-01  3.581E+01 -4.028E+00  2.697E-01
   6.250E-01  8.125E-01  3.483E+01 -2.973E+00  2.657E-01
   6.875E-01  8.125E-01  3.354E+01 -2.043E+00  2.580E-01
   7.500E-01  8.125E-01  3.153E+01 -2.498E+00  2.421E-01
   8.125E-01  8.125E-01  2.791E+01 -6.898E+00  2.028E-01
   8.750E-01  8.125E-01  2.128E+01 -1.887E+01  1.014E-01
   9.375E-01  8.125E-01  1.059E+01 -3.449E+01 -1.272E-01
   1.000E+00  8.125E-01  0.000E+00  0.000E+00 -5.000E-01
   0.000E+00  8.750E-01  0.000E+00  0.000E+00  5.000E-01
   6.250E-02  8.750E-01  7.740E+00  1.573E+01  4.443E-01
   1.250E-01  8.750E-01  1.922E+01  1.778E+01  3.964E-01
   1.875E-01  8.750E-01  2.890E+01  1.327E+01  3.635E-01
   2.500E-01  8.750E-01  3.534E+01  7.188E+00  3.437E-01
   3.125E-01  8.750E-01  3.874E+01  1.949E+00  3.324E-01
   3.750E-01  8.750E-01  3.981E+01 -1.534E+00  3.251E-01
   4.375E-01  8.750E-01  3.933E+01 -3.207E+00  3.191E-01
   5.000E-01  8.750E-01  3.806E+01 -3.468E+00  3.131E-01
   5.625E-01  8.750E-01  3.656E+01 -2.790E+00  3.063E-01
   6.250E-01  8.750E-01  3.516E+01 -1.593E+00  2.981E-01
   6.875E-01  8.750E-01  3.392E+01 -3.116E-01  2.866E-01
   7.500E-01  8.750E-01  3.252E+01  2.545E-01  2.668E-01
   8.125E-01  8.750E-01  3.004E+01 -1.862E+00  2.237E-01
   8.750E-01  8.750E-01  2.455E+01 -9.974E+00  1.190E-01
   9.375E-01  8.750E-01  1.368E+01 -2.278E+01 -1.144E-01
   1.000E+00  8.750E-01  0.000E+00  0.000E+00 -5.000E-01
   0.000E+00  9.375E-01  0.000E+00  0.000E+00  5.000E-01
   6.250E-02  9.375E-01  6.127E+00  6.377E+00  4.618E-01
   1.250E-01  9.375E-01  1.573E+01  7.168E+00  4.284E-01
   1.875E-01  9.375E-01  2.390E+01  5.024E+00  4.030E-01
   2.500E-01  9.375E-01  2.900E+01  2.181E+00  3.844E-01
   3.125E-01  9.375E-01  3.109E+01 -1.241E-01  3.702E-01
   3.750E-01  9.375E-01  3.095E+01 -1.447E+00  3.583E-01
   4.375E-01  9.375E-01  2.956E+01 -1.876E+00  3.474E-01
   5.000E-01  9.375E-01  2.774E+01 -1.695E+00  3.370E-01
   5.625E-01  9.375E-01  2.609E+01 -1.134E+00  3.265E-01
   6.250E-01  9.375E-01  2.495E+01 -3.368E-01  3.151E-01
   6.875E-01  9.375E-01  2.450E+01  5.989E-01  3.005E-01
   7.500E-01  9.375E-01  2.464E+01  1.388E+00  2.771E-01
   8.125E-01  9.375E-01  2.475E+01  1.070E+00  2.300E-01
   8.750E-01  9.375E-01  2.278E+01 -2.510E+00  1.226E-01
   9.375E-01  9.375E-01  1.478E+01 -9.936E+00 -1.115E-01
   1.000E+00  9.375E-01  0.000E+00  0.000E+00 -5.000E-01
   0.000E+00  1.000E+00  0.000E+00  0.000E+00  5.000E-01
   6.250E-02  1.000E+00  0.000E+00  0.000E+00  4.678E-01
   1.250E-01  1.000E+00  0.000E+00  0.000E+00  4.394E-01
   1.875E-01  1.000E+00  0.000E+00  0.000E+00  4.162E-01
   2.500E-01  1.000E+00  0.000E+00  0.000E+00  3.976E-01
   3.125E-01  1.000E+00  0.000E+00  0.000E+00  3.820E-01
   3.750E-01  1.000E+00  0.000E+00  0.000E+00  3.682E-01
   4.375E-01  1.000E+00  0.000E+00  0.000E+00  3.555E-01
   5.000E-01  1.000E+00  0.000E+00  0.000E+00  3.436E-01
   5.625E-01  1.000E+00  0.000E+00  0.000E+00  3.318E-01
   6.250E-01  1.000E+00  0.000E+00  0.000E+00  3.192E-01
   6.875E-01  1.000E+00  0.000E+00  0.000E+00  3.033E-01
   7.500E-01  1.000E+00  0.000E+00  0.000E+00  2.781E-01
   8.125E-01  1.000E+00  0.000E+00  0.000E+00  2.289E-01
   8.750E-01  1.000E+00  0.000E+00  0.000E+00  1.202E-01
   9.375E-01  1.000E+00  0.000E+00  0.000E+00 -1.131E-01
   1.000E+00  1.000E+00  0.000E+00  0.000E+00 -5.000E-01
 GEOMETRY T=LINE, CS=GRID, F=POINT
 1
 5
 0.0 0.0
 1.0 0.0
 1.0 1.0
 0.0 1.0
 0.0 0.0
