 VARIABLES = "X", "Y", "U", "V", "T"
 ZONE I= 17,J= 17, F=POINT
   0.000E+00  0.000E+00  0.000E+00  0.000E+00  5.000E-01
   6.250E-02  0.000E+00  0.000E+00  0.000E+00  1.099E-01
   1.250E-01  0.000E+00  0.000E+00  0.000E+00 -1.245E-01
   1.875E-01  0.000E+00  0.000E+00  0.000E+00 -2.332E-01
   2.500E-01  0.000E+00  0.000E+00  0.000E+00 -2.820E-01
   3.125E-01  0.000E+00  0.000E+00  0.000E+00 -3.065E-01
   3.750E-01  0.000E+00  0.000E+00  0.000E+00 -3.218E-01
   4.375E-01  0.000E+00  0.000E+00  0.000E+00 -3.338E-01
   5.000E-01  0.000E+00  0.000E+00  0.000E+00 -3.450E-01
   5.625E-01  0.000E+00  0.000E+00  0.000E+00 -3.565E-01
   6.250E-01  0.000E+00  0.000E+00  0.000E+00 -3.688E-01
   6.875E-01  0.000E+00  0.000E+00  0.000E+00 -3.824E-01
   7.500E-01  0.000E+00  0.000E+00  0.000E+00 -3.979E-01
   8.125E-01  0.000E+00  0.000E+00  0.000E+00 -4.164E-01
   8.750E-01  0.000E+00  0.000E+00  0.000E+00 -4.394E-01
   9.375E-01  0.000E+00  0.000E+00  0.000E+00 -4.679E-01
   1.000E+00  0.000E+00  0.000E+00  0.000E+00 -5.000E-01
   0.000E+00  6.250E-02  0.000E+00  0.000E+00  5.000E-01
   6.250E-02  6.250E-02 -1.481E+01  9.960E+00  1.086E-01
   1.250E-01  6.250E-02 -2.274E+01  2.436E+00 -1.266E-01
   1.875E-01  6.250E-02 -2.454E+01 -1.205E+00 -2.338E-01
   2.500E-01  6.250E-02 -2.422E+01 -1.540E+00 -2.805E-01
   3.125E-01  6.250E-02 -2.388E+01 -7.422E-01 -3.034E-01
   3.750E-01  6.250E-02 -2.419E+01  2.194E-01 -3.174E-01
   4.375E-01  6.250E-02 -2.522E+01  1.050E+00 -3.283E-01
   5.000E-01  6.250E-02 -2.682E+01  1.647E+00 -3.383E-01
   5.625E-01  6.250E-02 -2.865E+01  1.873E+00 -3.484E-01
   6.250E-01  6.250E-02 -3.011E+01  1.497E+00 -3.590E-01
   6.875E-01  6.250E-02 -3.039E+01  2.388E-01 -3.708E-01
   7.500E-01  6.250E-02 -2.849E+01 -2.016E+00 -3.848E-01
   8.125E-01  6.250E-02 -2.359E+01 -4.852E+00 -4.032E-01
   8.750E-01  6.250E-02 -1.560E+01 -7.036E+00 -4.285E-01
   9.375E-01  6.250E-02 -6.109E+00 -6.322E+00 -4.618E-01
   1.000E+00  6.250E-02  0.000E+00  0.000E+00 -5.000E-01
   0.000E+00  1.250E-01  0.000E+00  0.000E+00  5.000E-01
   6.250E-02  1.250E-01 -1.363E+01  2.274E+01  1.120E-01
   1.250E-01  1.250E-01 -2.437E+01  9.728E+00 -1.222E-01
   1.875E-01  1.250E-01 -2.963E+01  1.483E+00 -2.268E-01
   2.500E-01  1.250E-01 -3.187E+01 -6.526E-01 -2.695E-01
   3.125E-01  1.250E-01 -3.305E+01 -2.943E-02 -2.890E-01
   3.750E-01  1.250E-01 -3.413E+01  1.337E+00 -3.001E-01
   4.375E-01  1.250E-01 -3.544E+01  2.633E+00 -3.080E-01
   5.000E-01  1.250E-01 -3.692E+01  3.424E+00 -3.145E-01
   5.625E-01  1.250E-01 -3.825E+01  3.289E+00 -3.204E-01
   6.250E-01  1.250E-01 -3.886E+01  1.746E+00 -3.263E-01
   6.875E-01  1.250E-01 -3.798E+01 -1.624E+00 -3.333E-01
   7.500E-01  1.250E-01 -3.479E+01 -6.796E+00 -3.444E-01
   8.125E-01  1.250E-01 -2.858E+01 -1.289E+01 -3.638E-01
   8.750E-01  1.250E-01 -1.907E+01 -1.749E+01 -3.965E-01
   9.375E-01  1.250E-01 -7.715E+00 -1.560E+01 -4.442E-01
   1.000E+00  1.250E-01  0.000E+00  0.000E+00 -5.000E-01
   0.000E+00  1.875E-01  0.000E+00  0.000E+00  5.000E-01
   6.250E-02  1.875E-01 -1.050E+01  3.433E+01  1.253E-01
   1.250E-01  1.875E-01 -2.103E+01  1.843E+01 -1.039E-01
   1.875E-01  1.875E-01 -2.746E+01  6.293E+00 -2.052E-01
   2.500E-01  1.875E-01 -3.088E+01  1.882E+00 -2.443E-01
   3.125E-01  1.875E-01 -3.271E+01  1.526E+00 -2.600E-01
   3.750E-01  1.875E-01 -3.388E+01  2.606E+00 -2.675E-01
   4.375E-01  1.875E-01 -3.480E+01  3.834E+00 -2.714E-01
   5.000E-01  1.875E-01 -3.561E+01  4.458E+00 -2.731E-01
   5.625E-01  1.875E-01 -3.618E+01  3.817E+00 -2.732E-01
   6.250E-01  1.875E-01 -3.625E+01  1.230E+00 -2.726E-01
   6.875E-01  1.875E-01 -3.533E+01 -3.829E+00 -2.741E-01
   7.500E-01  1.875E-01 -3.280E+01 -1.142E+01 -2.824E-01
   8.125E-01  1.875E-01 -2.773E+01 -2.057E+01 -3.047E-01
   8.750E-01  1.875E-01 -1.934E+01 -2.790E+01 -3.489E-01
   9.375E-01  1.875E-01 -8.318E+00 -2.540E+01 -4.180E-01
   1.000E+00  1.875E-01  0.000E+00  0.000E+00 -5.000E-01
   0.000E+00  2.500E-01  0.000E+00  0.000E+00  5.000E-01
   6.250E-02  2.500E-01 -7.381E+00  4.377E+01  1.443E-01
   1.250E-01  2.500E-01 -1.656E+01  2.669E+01 -7.709E-02
   1.875E-01  2.500E-01 -2.270E+01  1.133E+01 -1.742E-01
   2.500E-01  2.500E-01 -2.599E+01  4.600E+00 -2.092E-01
   3.125E-01  2.500E-01 -2.755E+01  2.969E+00 -2.209E-01
   3.750E-01  2.500E-01 -2.821E+01  3.431E+00 -2.247E-01
   4.375E-01  2.500E-01 -2.843E+01  4.363E+00 -2.247E-01
   5.000E-01  2.500E-01 -2.847E+01  4.801E+00 -2.218E-01
   5.625E-01  2.500E-01 -2.844E+01  3.929E+00 -2.165E-01
   6.250E-01  2.500E-01 -2.839E+01  8.948E-01 -2.100E-01
   6.875E-01  2.500E-01 -2.814E+01 -5.075E+00 -2.061E-01
   7.500E-01  2.500E-01 -2.714E+01 -1.440E+01 -2.118E-01
   8.125E-01  2.500E-01 -2.429E+01 -2.634E+01 -2.372E-01
   8.750E-01  2.500E-01 -1.819E+01 -3.690E+01 -2.939E-01
   9.375E-01  2.500E-01 -8.545E+00 -3.494E+01 -3.870E-01
   1.000E+00  2.500E-01  0.000E+00  0.000E+00 -5.000E-01
   0.000E+00  3.125E-01  0.000E+00  0.000E+00  5.000E-01
   6.250E-02  3.125E-01 -4.478E+00  5.089E+01  1.667E-01
   1.250E-01  3.125E-01 -1.196E+01  3.375E+01 -4.532E-02
   1.875E-01  3.125E-01 -1.730E+01  1.572E+01 -1.379E-01
   2.500E-01  3.125E-01 -1.998E+01  6.730E+00 -1.687E-01
   3.125E-01  3.125E-01 -2.088E+01  3.737E+00 -1.764E-01
   3.750E-01  3.125E-01 -2.080E+01  3.489E+00 -1.766E-01
   4.375E-01  3.125E-01 -2.024E+01  4.096E+00 -1.735E-01
   5.000E-01  3.125E-01 -1.950E+01  4.468E+00 -1.676E-01
   5.625E-01  3.125E-01 -1.887E+01  3.737E+00 -1.586E-01
   6.250E-01  3.125E-01 -1.863E+01  9.255E-01 -1.478E-01
   6.875E-01  3.125E-01 -1.893E+01 -5.079E+00 -1.393E-01
   7.500E-01  3.125E-01 -1.943E+01 -1.527E+01 -1.417E-01
   8.125E-01  3.125E-01 -1.899E+01 -2.952E+01 -1.684E-01
   8.750E-01  3.125E-01 -1.574E+01 -4.364E+01 -2.361E-01
   9.375E-01  3.125E-01 -8.272E+00 -4.358E+01 -3.536E-01
   1.000E+00  3.125E-01  0.000E+00  0.000E+00 -5.000E-01
   0.000E+00  3.750E-01  0.000E+00  0.000E+00  5.000E-01
   6.250E-02  3.750E-01 -1.614E+00  5.573E+01  1.915E-01
   1.250E-01  3.750E-01 -7.355E+00  3.951E+01 -1.025E-02
   1.875E-01  3.750E-01 -1.195E+01  1.935E+01 -9.866E-02
   2.500E-01  3.750E-01 -1.415E+01  8.182E+00 -1.254E-01
   3.125E-01  3.750E-01 -1.453E+01  3.783E+00 -1.289E-01
   3.750E-01  3.750E-01 -1.385E+01  2.787E+00 -1.257E-01
   4.375E-01  3.750E-01 -1.265E+01  3.066E+00 -1.202E-01
   5.000E-01  3.750E-01 -1.127E+01  3.437E+00 -1.127E-01
   5.625E-01  3.750E-01 -1.004E+01  3.060E+00 -1.024E-01
   6.250E-01  3.750E-01 -9.358E+00  9.563E-01 -8.963E-02
   6.875E-01  3.750E-01 -9.662E+00 -4.279E+00 -7.796E-02
   7.500E-01  3.750E-01 -1.098E+01 -1.434E+01 -7.661E-02
   8.125E-01  3.750E-01 -1.248E+01 -3.003E+01 -1.025E-01
   8.750E-01  3.750E-01 -1.210E+01 -4.761E+01 -1.784E-01
   9.375E-01  3.750E-01 -7.381E+00 -5.068E+01 -3.188E-01
   1.000E+00  3.750E-01  0.000E+00  0.000E+00 -5.000E-01
   0.000E+00  4.375E-01  0.000E+00  0.000E+00  5.000E-01
   6.250E-02  4.375E-01  1.225E+00  5.825E+01  2.191E-01
   1.250E-01  4.375E-01 -2.524E+00  4.409E+01  2.833E-02
   1.875E-01  4.375E-01 -6.613E+00  2.252E+01 -5.690E-02
   2.500E-01  4.375E-01 -8.758E+00  9.309E+00 -8.036E-02
   3.125E-01  4.375E-01 -9.060E+00  3.441E+00 -7.978E-02
   3.750E-01  4.375E-01 -8.175E+00  1.618E+00 -7.291E-02
   4.375E-01  4.375E-01 -6.663E+00  1.517E+00 -6.520E-02
   5.000E-01  4.375E-01 -4.900E+00  1.852E+00 -5.695E-02
   5.625E-01  4.375E-01 -3.225E+00  1.821E+00 -4.698E-02
   6.250E-01  4.375E-01 -2.049E+00  5.494E-01 -3.468E-02
   6.875E-01  4.375E-01 -1.879E+00 -3.455E+00 -2.226E-02
   7.500E-01  4.375E-01 -3.128E+00 -1.245E+01 -1.828E-02
   8.125E-01  4.375E-01 -5.592E+00 -2.840E+01 -4.206E-02
   8.750E-01  4.375E-01 -7.574E+00 -4.874E+01 -1.230E-01
   9.375E-01  4.375E-01 -5.861E+00 -5.568E+01 -2.838E-01
   1.000E+00  4.375E-01  0.000E+00  0.000E+00 -5.000E-01
   0.000E+00  5.000E-01  0.000E+00  0.000E+00  5.000E-01
   6.250E-02  5.000E-01  3.778E+00  5.825E+01  2.501E-01
   1.250E-01  5.000E-01  2.562E+00  4.735E+01  7.245E-02
   1.875E-01  5.000E-01 -8.735E-01  2.559E+01 -1.095E-02
   2.500E-01  5.000E-01 -3.325E+00  1.063E+01 -3.331E-02
   3.125E-01  5.000E-01 -4.019E+00  3.199E+00 -2.965E-02
   3.750E-01  5.000E-01 -3.339E+00  3.896E-01 -1.924E-02
   4.375E-01  5.000E-01 -1.852E+00 -2.083E-01 -9.036E-03
   5.000E-01  5.000E-01 -2.106E-06  1.204E-06 -3.014E-08
   5.625E-01  5.000E-01  1.852E+00  2.083E-01  9.036E-03
   6.250E-01  5.000E-01  3.339E+00 -3.896E-01  1.924E-02
   6.875E-01  5.000E-01  4.019E+00 -3.199E+00  2.965E-02
   7.500E-01  5.000E-01  3.325E+00 -1.063E+01  3.331E-02
   8.125E-01  5.000E-01  8.735E-01 -2.559E+01  1.095E-02
   8.750E-01  5.000E-01 -2.562E+00 -4.735E+01 -7.245E-02
   9.375E-01  5.000E-01 -3.778E+00 -5.825E+01 -2.501E-01
   1.000E+00  5.000E-01  0.000E+00  0.000E+00 -5.000E-01
   0.000E+00  5.625E-01  0.000E+00  0.000E+00  5.000E-01
   6.250E-02  5.625E-01  5.861E+00  5.568E+01  2.838E-01
   1.250E-01  5.625E-01  7.574E+00  4.874E+01  1.230E-01
   1.875E-01  5.625E-01  5.592E+00  2.840E+01  4.206E-02
   2.500E-01  5.625E-01  3.128E+00  1.245E+01  1.828E-02
   3.125E-01  5.625E-01  1.879E+00  3.455E+00  2.226E-02
   3.750E-01  5.625E-01  2.049E+00 -5.494E-01  3.468E-02
   4.375E-01  5.625E-01  3.225E+00 -1.821E+00  4.698E-02
   5.000E-01  5.625E-01  4.900E+00 -1.852E+00  5.695E-02
   5.625E-01  5.625E-01  6.663E+00 -1.517E+00  6.520E-02
   6.250E-01  5.625E-01  8.175E+00 -1.618E+00  7.291E-02
   6.875E-01  5.625E-01  9.060E+00 -3.441E+00  7.978E-02
   7.500E-01  5.625E-01  8.758E+00 -9.309E+00  8.036E-02
   8.125E-01  5.625E-01  6.613E+00 -2.252E+01  5.690E-02
   8.750E-01  5.625E-01  2.524E+00 -4.409E+01 -2.833E-02
   9.375E-01  5.625E-01 -1.225E+00 -5.825E+01 -2.191E-01
   1.000E+00  5.625E-01  0.000E+00  0.000E+00 -5.000E-01
   0.000E+00  6.250E-01  0.000E+00  0.000E+00  5.000E-01
   6.250E-02  6.250E-01  7.381E+00  5.068E+01  3.188E-01
   1.250E-01  6.250E-01  1.210E+01  4.761E+01  1.784E-01
   1.875E-01  6.250E-01  1.248E+01  3.003E+01  1.025E-01
   2.500E-01  6.250E-01  1.098E+01  1.434E+01  7.661E-02
   3.125E-01  6.250E-01  9.662E+00  4.279E+00  7.796E-02
   3.750E-01  6.250E-01  9.358E+00 -9.563E-01  8.963E-02
   4.375E-01  6.250E-01  1.004E+01 -3.060E+00  1.024E-01
   5.000E-01  6.250E-01  1.127E+01 -3.437E+00  1.127E-01
   5.625E-01  6.250E-01  1.265E+01 -3.066E+00  1.202E-01
   6.250E-01  6.250E-01  1.385E+01 -2.787E+00  1.257E-01
   6.875E-01  6.250E-01  1.453E+01 -3.783E+00  1.289E-01
   7.500E-01  6.250E-01  1.415E+01 -8.182E+00  1.254E-01
   8.125E-01  6.250E-01  1.195E+01 -1.935E+01  9.866E-02
   8.750E-01  6.250E-01  7.355E+00 -3.951E+01  1.025E-02
   9.375E-01  6.250E-01  1.613E+00 -5.573E+01 -1.915E-01
   1.000E+00  6.250E-01  0.000E+00  0.000E+00 -5.000E-01
   0.000E+00  6.875E-01  0.000E+00  0.000E+00  5.000E-01
   6.250E-02  6.875E-01  8.272E+00  4.358E+01  3.536E-01
   1.250E-01  6.875E-01  1.574E+01  4.364E+01  2.361E-01
   1.875E-01  6.875E-01  1.899E+01  2.952E+01  1.684E-01
   2.500E-01  6.875E-01  1.943E+01  1.527E+01  1.417E-01
   3.125E-01  6.875E-01  1.893E+01  5.079E+00  1.393E-01
   3.750E-01  6.875E-01  1.863E+01 -9.255E-01  1.478E-01
   4.375E-01  6.875E-01  1.887E+01 -3.737E+00  1.586E-01
   5.000E-01  6.875E-01  1.950E+01 -4.468E+00  1.676E-01
   5.625E-01  6.875E-01  2.024E+01 -4.096E+00  1.735E-01
   6.250E-01  6.875E-01  2.080E+01 -3.489E+00  1.766E-01
   6.875E-01  6.875E-01  2.088E+01 -3.737E+00  1.764E-01
   7.500E-01  6.875E-01  1.998E+01 -6.730E+00  1.687E-01
   8.125E-01  6.875E-01  1.730E+01 -1.572E+01  1.379E-01
   8.750E-01  6.875E-01  1.196E+01 -3.375E+01  4.532E-02
   9.375E-01  6.875E-01  4.478E+00 -5.089E+01 -1.667E-01
   1.000E+00  6.875E-01  0.000E+00  0.000E+00 -5.000E-01
   0.000E+00  7.500E-01  0.000E+00  0.000E+00  5.000E-01
   6.250E-02  7.500E-01  8.545E+00  3.494E+01  3.870E-01
   1.250E-01  7.500E-01  1.819E+01  3.690E+01  2.939E-01
   1.875E-01  7.500E-01  2.429E+01  2.634E+01  2.372E-01
   2.500E-01  7.500E-01  2.714E+01  1.440E+01  2.118E-01
   3.125E-01  7.500E-01  2.814E+01  5.075E+00  2.061E-01
   3.750E-01  7.500E-01  2.839E+01 -8.948E-01  2.100E-01
   4.375E-01  7.500E-01  2.844E+01 -3.929E+00  2.165E-01
   5.000E-01  7.500E-01  2.847E+01 -4.801E+00  2.218E-01
   5.625E-01  7.500E-01  2.843E+01 -4.363E+00  2.247E-01
   6.250E-01  7.500E-01  2.821E+01 -3.431E+00  2.247E-01
   6.875E-01  7.500E-01  2.755E+01 -2.969E+00  2.209E-01
   7.500E-01  7.500E-01  2.599E+01 -4.600E+00  2.092E-01
   8.125E-01  7.500E-01  2.270E+01 -1.133E+01  1.742E-01
   8.750E-01  7.500E-01  1.656E+01 -2.669E+01  7.709E-02
   9.375E-01  7.500E-01  7.381E+00 -4.377E+01 -1.443E-01
   1.000E+00  7.500E-01  0.000E+00  0.000E+00 -5.000E-01
   0.000E+00  8.125E-01  0.000E+00  0.000E+00  5.000E-01
   6.250E-02  8.125E-01  8.318E+00  2.540E+01  4.180E-01
   1.250E-01  8.125E-01  1.934E+01  2.790E+01  3.489E-01
   1.875E-01  8.125E-01  2.773E+01  2.057E+01  3.047E-01
   2.500E-01  8.125E-01  3.280E+01  1.142E+01  2.824E-01
   3.125E-01  8.125E-01  3.533E+01  3.829E+00  2.741E-01
   3.750E-01  8.125E-01  3.625E+01 -1.230E+00  2.726E-01
   4.375E-01  8.125E-01  3.618E+01 -3.817E+00  2.732E-01
   5.000E-01  8.125E-01  3.561E+01 -4.458E+00  2.731E-01
   5.625E-01  8.125E-01  3.480E+01 -3.834E+00  2.714E-01
   6.250E-01  8.125E-01  3.388E+01 -2.606E+00  2.675E-01
   6.875E-01  8.125E-01  3.271E+01 -1.526E+00  2.600E-01
   7.500E-01  8.125E-01  3.088E+01 -1.882E+00  2.443E-01
   8.125E-01  8.125E-01  2.746E+01 -6.293E+00  2.052E-01
   8.750E-01  8.125E-01  2.103E+01 -1.843E+01  1.039E-01
   9.375E-01  8.125E-01  1.050E+01 -3.433E+01 -1.253E-01
   1.000E+00  8.125E-01  0.000E+00  0.000E+00 -5.000E-01
   0.000E+00  8.750E-01  0.000E+00  0.000E+00  5.000E-01
   6.250E-02  8.750E-01  7.715E+00  1.560E+01  4.442E-01
   1.250E-01  8.750E-01  1.907E+01  1.749E+01  3.965E-01
   1.875E-01  8.750E-01  2.858E+01  1.289E+01  3.638E-01
   2.500E-01  8.750E-01  3.479E+01  6.796E+00  3.444E-01
   3.125E-01  8.750E-01  3.798E+01  1.624E+00  3.333E-01
   3.750E-01  8.750E-01  3.886E+01 -1.746E+00  3.263E-01
   4.375E-01  8.750E-01  3.825E+01 -3.289E+00  3.204E-01
   5.000E-01  8.750E-01  3.692E+01 -3.424E+00  3.145E-01
   5.625E-01  8.750E-01  3.544E+01 -2.633E+00  3.080E-01
   6.250E-01  8.750E-01  3.413E+01 -1.337E+00  3.001E-01
   6.875E-01  8.750E-01  3.305E+01  2.943E-02  2.890E-01
   7.500E-01  8.750E-01  3.187E+01  6.526E-01  2.695E-01
   8.125E-01  8.750E-01  2.963E+01 -1.483E+00  2.268E-01
   8.750E-01  8.750E-01  2.437E+01 -9.728E+00  1.222E-01
   9.375E-01  8.750E-01  1.363E+01 -2.274E+01 -1.120E-01
   1.000E+00  8.750E-01  0.000E+00  0.000E+00 -5.000E-01
   0.000E+00  9.375E-01  0.000E+00  0.000E+00  5.000E-01
   6.250E-02  9.375E-01  6.109E+00  6.322E+00  4.618E-01
   1.250E-01  9.375E-01  1.560E+01  7.036E+00  4.285E-01
   1.875E-01  9.375E-01  2.359E+01  4.852E+00  4.032E-01
   2.500E-01  9.375E-01  2.849E+01  2.016E+00  3.848E-01
   3.125E-01  9.375E-01  3.039E+01 -2.388E-01  3.708E-01
   3.750E-01  9.375E-01  3.011E+01 -1.497E+00  3.590E-01
   4.375E-01  9.375E-01  2.865E+01 -1.873E+00  3.484E-01
   5.000E-01  9.375E-01  2.682E+01 -1.647E+00  3.383E-01
   5.625E-01  9.375E-01  2.522E+01 -1.050E+00  3.283E-01
   6.250E-01  9.375E-01  2.419E+01 -2.194E-01  3.174E-01
   6.875E-01  9.375E-01  2.388E+01  7.423E-01  3.034E-01
   7.500E-01  9.375E-01  2.422E+01  1.540E+00  2.805E-01
   8.125E-01  9.375E-01  2.454E+01  1.205E+00  2.338E-01
   8.750E-01  9.375E-01  2.274E+01 -2.436E+00  1.266E-01
   9.375E-01  9.375E-01  1.481E+01 -9.960E+00 -1.086E-01
   1.000E+00  9.375E-01  0.000E+00  0.000E+00 -5.000E-01
   0.000E+00  1.000E+00  0.000E+00  0.000E+00  5.000E-01
   6.250E-02  1.000E+00  0.000E+00  0.000E+00  4.679E-01
   1.250E-01  1.000E+00  0.000E+00  0.000E+00  4.394E-01
   1.875E-01  1.000E+00  0.000E+00  0.000E+00  4.164E-01
   2.500E-01  1.000E+00  0.000E+00  0.000E+00  3.979E-01
   3.125E-01  1.000E+00  0.000E+00  0.000E+00  3.824E-01
   3.750E-01  1.000E+00  0.000E+00  0.000E+00  3.688E-01
   4.375E-01  1.000E+00  0.000E+00  0.000E+00  3.565E-01
   5.000E-01  1.000E+00  0.000E+00  0.000E+00  3.450E-01
   5.625E-01  1.000E+00  0.000E+00  0.000E+00  3.338E-01
   6.250E-01  1.000E+00  0.000E+00  0.000E+00  3.218E-01
   6.875E-01  1.000E+00  0.000E+00  0.000E+00  3.065E-01
   7.500E-01  1.000E+00  0.000E+00  0.000E+00  2.820E-01
   8.125E-01  1.000E+00  0.000E+00  0.000E+00  2.332E-01
   8.750E-01  1.000E+00  0.000E+00  0.000E+00  1.245E-01
   9.375E-01  1.000E+00  0.000E+00  0.000E+00 -1.099E-01
   1.000E+00  1.000E+00  0.000E+00  0.000E+00 -5.000E-01
 GEOMETRY T=LINE, CS=GRID, F=POINT
 1
 5
 0.0 0.0
 1.0 0.0
 1.0 1.0
 0.0 1.0
 0.0 0.0
