VARIABLES = "X","Y"
ZONE I=5, F=POINT
2 4
3 9
5 25
6 36
7 49
