VARIABLES = "X","Y"
ZONE I=12, F=POINT
1  20
2  28
3  46
4  52
5  66
6  86
7  90
8  72
9  62
10 50
11 48
12 30
