TITLE="Example: Multi-Zone XY Plot"
VARIABLES="Position", "Temperature", "Pressure"
ZONE T="0.0 seconds", I=4, F=POINT
 71.30, 563.7, 101362.5
 86.70, 556.7, 101349.6
103.10, 540.8, 101345.4
124.40, 449.2, 101345.2
ZONE T="0.1 seconds", I=4, F=POINT
 71.31, 564.9, 101362.1
 84.42, 553.1, 101348.9
103.10, 540.5, 101344.0
124.80, 458.5, 101342.2
