TITLE = "Example: Multi-Variable XY Plot"
VARIABLES="Time", "P_1", "P_2", "P_3", "P_4"
ZONE T="Measurements", I=8, F=POINT
0.00, 350.9, 316.3, 384.2, 339.1
0.01, 390.1, 351.0, 428.3, 377.2
0.02, 520.1, 506.2, 570.6, 537.2
0.03, 551.1, 494.4, 623.7, 651.0
0.04, 545.5, 490.5, 599.8, 577.7
0.05, 519.4, 467.6, 582.0, 366.5
0.06, 500.2, 450.3, 550.1, 490.6
0.07, 445.1, 400.6, 420.6, 476.1
