TITLE="Example: Y as the Independent Variable"
VARIABLES="Concentration", "Depth"
ZONE T="STATION 1", I=8
0.55  100
0.75  150
0.80  200
0.80  250
0.90  300
0.80  350
0.70  400
0.45  450
ZONE T="STATION 2", I=6
0.80  100
0.90  150
0.95  200
1.10  250
1.20  300
0.50  350
ZONE T="STATION 3", I=9
0.55  100
0.70  125
0.80  150
0.95  175
1.00  200
0.80  250
0.70  300
0.55  350
0.50  400
